 Entering Gaussian System, Link 0=/sw/chem/g09/g09
 Initial command:
 /sw/chem/g09/l1.exe "/scratch_local/salman/opt/Gau-58136.inp" -scrdir="/scratch_local/salman/opt/"
 Entering Link 1 = /sw/chem/g09/l1.exe PID=     58137.
  
 Copyright (c) 1988,1990,1992,1993,1995,1998,2003,2009,2013,
            Gaussian, Inc.  All Rights Reserved.
  
 This is part of the Gaussian(R) 09 program.  It is based on
 the Gaussian(R) 03 system (copyright 2003, Gaussian, Inc.),
 the Gaussian(R) 98 system (copyright 1998, Gaussian, Inc.),
 the Gaussian(R) 94 system (copyright 1995, Gaussian, Inc.),
 the Gaussian 92(TM) system (copyright 1992, Gaussian, Inc.),
 the Gaussian 90(TM) system (copyright 1990, Gaussian, Inc.),
 the Gaussian 88(TM) system (copyright 1988, Gaussian, Inc.),
 the Gaussian 86(TM) system (copyright 1986, Carnegie Mellon
 University), and the Gaussian 82(TM) system (copyright 1983,
 Carnegie Mellon University). Gaussian is a federally registered
 trademark of Gaussian, Inc.
  
 This software contains proprietary and confidential information,
 including trade secrets, belonging to Gaussian, Inc.
  
 This software is provided under written license and may be
 used, copied, transmitted, or stored only in accord with that
 written license.
  
 The following legend is applicable only to US Government
 contracts under FAR:
  
                    RESTRICTED RIGHTS LEGEND
  
 Use, reproduction and disclosure by the US Government is
 subject to restrictions as set forth in subparagraphs (a)
 and (c) of the Commercial Computer Software - Restricted
 Rights clause in FAR 52.227-19.
  
 Gaussian, Inc.
 340 Quinnipiac St., Bldg. 40, Wallingford CT 06492
  
  
 ---------------------------------------------------------------
 Warning -- This program may not be used in any manner that
 competes with the business of Gaussian, Inc. or will provide
 assistance to any competitor of Gaussian, Inc.  The licensee
 of this program is prohibited from giving any competitor of
 Gaussian, Inc. access to this program.  By using this program,
 the user acknowledges that Gaussian, Inc. is engaged in the
 business of creating and licensing software in the field of
 computational chemistry and represents and warrants to the
 licensee that it is not a competitor of Gaussian, Inc. and that
 it will not use this program in any manner prohibited above.
 ---------------------------------------------------------------
  

 Cite this work as:
 Gaussian 09, Revision D.01,
 M. J. Frisch, G. W. Trucks, H. B. Schlegel, G. E. Scuseria, 
 M. A. Robb, J. R. Cheeseman, G. Scalmani, V. Barone, B. Mennucci, 
 G. A. Petersson, H. Nakatsuji, M. Caricato, X. Li, H. P. Hratchian, 
 A. F. Izmaylov, J. Bloino, G. Zheng, J. L. Sonnenberg, M. Hada, 
 M. Ehara, K. Toyota, R. Fukuda, J. Hasegawa, M. Ishida, T. Nakajima, 
 Y. Honda, O. Kitao, H. Nakai, T. Vreven, J. A. Montgomery, Jr., 
 J. E. Peralta, F. Ogliaro, M. Bearpark, J. J. Heyd, E. Brothers, 
 K. N. Kudin, V. N. Staroverov, T. Keith, R. Kobayashi, J. Normand, 
 K. Raghavachari, A. Rendell, J. C. Burant, S. S. Iyengar, J. Tomasi, 
 M. Cossi, N. Rega, J. M. Millam, M. Klene, J. E. Knox, J. B. Cross, 
 V. Bakken, C. Adamo, J. Jaramillo, R. Gomperts, R. E. Stratmann, 
 O. Yazyev, A. J. Austin, R. Cammi, C. Pomelli, J. W. Ochterski, 
 R. L. Martin, K. Morokuma, V. G. Zakrzewski, G. A. Voth, 
 P. Salvador, J. J. Dannenberg, S. Dapprich, A. D. Daniels, 
 O. Farkas, J. B. Foresman, J. V. Ortiz, J. Cioslowski, 
 and D. J. Fox, Gaussian, Inc., Wallingford CT, 2013.
 
 ******************************************
 Gaussian 09:  ES64L-G09RevD.01 24-Apr-2013
                 3-Feb-2019 
 ******************************************
 %nprocshared=12
 Will use up to   12 processors via shared memory.
 %chk=stuff.chk
 ------------------------------------------
 #p opt=modredundant freq wb97xd/gen nosymm
 ------------------------------------------
 1/14=-1,18=120,19=15,26=3,38=1/1,3;
 2/9=110,12=2,15=1,17=6,18=5,40=1/2;
 3/5=7,11=2,16=1,25=1,30=1,71=1,74=-58/1,2,3;
 4//1;
 5/5=2,38=5/2;
 6/7=2,8=2,9=2,10=2,28=1/1;
 7/30=1/1,2,3,16;
 1/14=-1,18=20,19=15,26=3/3(2);
 2/9=110,15=1/2;
 99//99;
 2/9=110,15=1/2;
 3/5=7,6=1,11=2,16=1,25=1,30=1,71=1,74=-58,82=7/1,2,3;
 4/5=5,16=3,69=1/1;
 5/5=2,38=5/2;
 7/30=1/1,2,3,16;
 1/14=-1,18=20,19=15,26=3/3(-5);
 2/9=110,15=1/2;
 6/7=2,8=2,9=2,10=2,19=2,28=1/1;
 99/9=1/99;
 Leave Link    1 at Sun Feb  3 12:27:09 2019, MaxMem=           0 cpu:         0.5
 (Enter /sw/chem/g09/l101.exe)
 ------------
 Monopodal Ti
 ------------
 Symbolic Z-matrix:
 Charge =  0 Multiplicity = 1
 Ti                    3.14667  -1.48022   0.19564 
 Cl                    3.64356  -3.11713   1.74797 
 Cl                    5.06881  -0.88708  -0.93999 
 Cl                    2.28889   0.37185   1.27738 
 Ti                    0.67398   1.49346  -0.13624 
 Cl                    2.77935   1.9428   -0.97386 
 Cl                   -0.86773   2.89235  -1.13742 
 Cl                    0.66277   1.84373   2.14702 
 Si                   -1.21595  -0.98582  -1.89095 
 O                    -0.30771  -0.06136  -0.91874 
 O                    -0.88143  -2.58032  -1.72035 
 Si                    0.39285  -3.46414  -1.27779 
 O                     1.50972  -2.41576  -0.69687 
 O(Iso=100000000)     -2.8107   -0.73906  -1.5566 
 O(Iso=100000000)     -1.00599  -0.60362  -3.4802 
 O(Iso=100000000)     -0.0345   -4.57914  -0.14198 
 O(Iso=100000000)      1.00404  -4.32461  -2.54347 
 H(Iso=100000000)     -3.37174  -1.26952  -2.12032 
 H(Iso=100000000)     -1.56703  -1.13407  -4.04393 
 H(Iso=100000000)     -0.72865  -5.13005  -0.50056 
 H(Iso=100000000)      0.30989  -4.87552  -2.90205 
 
 The following ModRedundant input section has been read:
 X      14 F                                                                   
 X      15 F                                                                   
 X      16 F                                                                   
 X      17 F                                                                   
 X      18 F                                                                   
 X      19 F                                                                   
 X      20 F                                                                   
 X      21 F                                                                   
 
 NAtoms=     21 NQM=       21 NQMF=       0 NMMI=      0 NMMIF=      0
                NMic=       0 NMicF=      0.
                    Isotopes and Nuclear Properties:
 (Nuclear quadrupole moments (NQMom) in fm**2, nuclear magnetic moments (NMagM)
  in nuclear magnetons)

  Atom         1           2           3           4           5           6           7           8           9          10
 IAtWgt=          48          35          35          35          48          35          35          35          28          16
 AtmWgt=  47.9479467  34.9688527  34.9688527  34.9688527  47.9479467  34.9688527  34.9688527  34.9688527  27.9769284  15.9949146
 NucSpn=           0           3           3           3           0           3           3           3           0           0
 AtZEff=   0.0000000   0.0000000   0.0000000   0.0000000   0.0000000   0.0000000   0.0000000   0.0000000   0.0000000   0.0000000
 NQMom=    0.0000000  -8.1650000  -8.1650000  -8.1650000   0.0000000  -8.1650000  -8.1650000  -8.1650000   0.0000000   0.0000000
 NMagM=    0.0000000   0.8218740   0.8218740   0.8218740   0.0000000   0.8218740   0.8218740   0.8218740   0.0000000   0.0000000
 AtZNuc=  22.0000000  17.0000000  17.0000000  17.0000000  22.0000000  17.0000000  17.0000000  17.0000000  14.0000000   8.0000000

  Atom        11          12          13          14          15          16          17          18          19          20
 IAtWgt=          16          28          16   100000000   100000000   100000000   100000000   100000000   100000000   100000000
 AtmWgt=  15.9949146  27.9769284  15.9949146************************************************************************************
 NucSpn=           0           0           0           0           0           0           0           0           0           0
 AtZEff=   0.0000000   0.0000000   0.0000000   0.0000000   0.0000000   0.0000000   0.0000000   0.0000000   0.0000000   0.0000000
 NQMom=    0.0000000   0.0000000   0.0000000   0.0000000   0.0000000   0.0000000   0.0000000   0.0000000   0.0000000   0.0000000
 NMagM=    0.0000000   0.0000000   0.0000000   0.0000000   0.0000000   0.0000000   0.0000000   0.0000000   0.0000000   0.0000000
 AtZNuc=   8.0000000  14.0000000   8.0000000   8.0000000   8.0000000   8.0000000   8.0000000   1.0000000   1.0000000   1.0000000

  Atom        21
 IAtWgt=   100000000
 AtmWgt=************
 NucSpn=           0
 AtZEff=   0.0000000
 NQMom=    0.0000000
 NMagM=    0.0000000
 AtZNuc=   1.0000000
 Leave Link  101 at Sun Feb  3 12:27:09 2019, MaxMem=    33554432 cpu:         1.1
 (Enter /sw/chem/g09/l103.exe)

 GradGradGradGradGradGradGradGradGradGradGradGradGradGradGradGradGradGrad
 Berny optimization.
 Initialization pass.
                           ----------------------------
                           !    Initial Parameters    !
                           ! (Angstroms and Degrees)  !
 --------------------------                            --------------------------
 ! Name  Definition              Value          Derivative Info.                !
 --------------------------------------------------------------------------------
 ! X14   R(14,-1)               -2.8107         Frozen                          !
 ! Y14   R(14,-2)               -0.7391         Frozen                          !
 ! Z14   R(14,-3)               -1.5566         Frozen                          !
 ! X15   R(15,-1)               -1.006          Frozen                          !
 ! Y15   R(15,-2)               -0.6036         Frozen                          !
 ! Z15   R(15,-3)               -3.4802         Frozen                          !
 ! X16   R(16,-1)               -0.0345         Frozen                          !
 ! Y16   R(16,-2)               -4.5791         Frozen                          !
 ! Z16   R(16,-3)               -0.142          Frozen                          !
 ! X17   R(17,-1)                1.004          Frozen                          !
 ! Y17   R(17,-2)               -4.3246         Frozen                          !
 ! Z17   R(17,-3)               -2.5435         Frozen                          !
 ! X18   R(18,-1)               -3.3717         Frozen                          !
 ! Y18   R(18,-2)               -1.2695         Frozen                          !
 ! Z18   R(18,-3)               -2.1203         Frozen                          !
 ! X19   R(19,-1)               -1.567          Frozen                          !
 ! Y19   R(19,-2)               -1.1341         Frozen                          !
 ! Z19   R(19,-3)               -4.0439         Frozen                          !
 ! X20   R(20,-1)               -0.7287         Frozen                          !
 ! Y20   R(20,-2)               -5.1301         Frozen                          !
 ! Z20   R(20,-3)               -0.5006         Frozen                          !
 ! X21   R(21,-1)                0.3099         Frozen                          !
 ! Y21   R(21,-2)               -4.8755         Frozen                          !
 ! Z21   R(21,-3)               -2.9021         Frozen                          !
 ! R1    R(1,2)                  2.31           estimate D2E/DX2                !
 ! R2    R(1,3)                  2.31           estimate D2E/DX2                !
 ! R3    R(1,4)                  2.31           estimate D2E/DX2                !
 ! R4    R(1,13)                 2.086          estimate D2E/DX2                !
 ! R5    R(4,5)                  2.4216         estimate D2E/DX2                !
 ! R6    R(4,8)                  2.3594         estimate D2E/DX2                !
 ! R7    R(5,6)                  2.31           estimate D2E/DX2                !
 ! R8    R(5,7)                  2.31           estimate D2E/DX2                !
 ! R9    R(5,8)                  2.31           estimate D2E/DX2                !
 ! R10   R(5,10)                 1.9984         estimate D2E/DX2                !
 ! R11   R(9,10)                 1.6201         estimate D2E/DX2                !
 ! R12   R(9,11)                 1.6381         estimate D2E/DX2                !
 ! R13   R(9,14)                 1.648          estimate D2E/DX2                !
 ! R14   R(9,15)                 1.648          estimate D2E/DX2                !
 ! R15   R(11,12)                1.6127         estimate D2E/DX2                !
 ! R16   R(12,13)                1.6383         estimate D2E/DX2                !
 ! R17   R(12,16)                1.648          estimate D2E/DX2                !
 ! R18   R(12,17)                1.648          estimate D2E/DX2                !
 ! R19   R(14,18)                0.956          estimate D2E/DX2                !
 ! R20   R(15,19)                0.956          estimate D2E/DX2                !
 ! R21   R(16,20)                0.956          estimate D2E/DX2                !
 ! R22   R(17,21)                0.956          estimate D2E/DX2                !
 ! A1    A(2,1,3)              109.4713         estimate D2E/DX2                !
 ! A2    A(2,1,4)              109.4712         estimate D2E/DX2                !
 ! A3    A(2,1,13)              97.9617         estimate D2E/DX2                !
 ! A4    A(3,1,4)              109.4712         estimate D2E/DX2                !
 ! A5    A(3,1,13)             123.9027         estimate D2E/DX2                !
 ! A6    A(4,1,13)             105.5775         estimate D2E/DX2                !
 ! A7    A(1,4,5)              110.2195         estimate D2E/DX2                !
 ! A8    A(1,4,8)              158.2301         estimate D2E/DX2                !
 ! A9    A(4,5,6)               72.1798         estimate D2E/DX2                !
 ! A10   A(4,5,10)             101.292          estimate D2E/DX2                !
 ! A11   A(6,5,7)              109.4713         estimate D2E/DX2                !
 ! A12   A(6,5,8)              109.4712         estimate D2E/DX2                !
 ! A13   A(6,5,10)             117.1993         estimate D2E/DX2                !
 ! A14   A(7,5,8)              109.4712         estimate D2E/DX2                !
 ! A15   A(7,5,10)              88.4871         estimate D2E/DX2                !
 ! A16   A(8,5,10)             120.174          estimate D2E/DX2                !
 ! A17   A(10,9,11)            112.2378         estimate D2E/DX2                !
 ! A18   A(10,9,14)            109.5914         estimate D2E/DX2                !
 ! A19   A(10,9,15)            112.0208         estimate D2E/DX2                !
 ! A20   A(11,9,14)            108.7975         estimate D2E/DX2                !
 ! A21   A(11,9,15)            107.4669         estimate D2E/DX2                !
 ! A22   A(14,9,15)            106.5115         estimate D2E/DX2                !
 ! A23   A(5,10,9)             162.6191         estimate D2E/DX2                !
 ! A24   A(9,11,12)            136.3343         estimate D2E/DX2                !
 ! A25   A(11,12,13)           106.5752         estimate D2E/DX2                !
 ! A26   A(11,12,16)           110.7947         estimate D2E/DX2                !
 ! A27   A(11,12,17)           111.6189         estimate D2E/DX2                !
 ! A28   A(13,12,16)           111.4297         estimate D2E/DX2                !
 ! A29   A(13,12,17)           110.7089         estimate D2E/DX2                !
 ! A30   A(16,12,17)           105.7971         estimate D2E/DX2                !
 ! A31   A(9,14,18)            111.4196         estimate D2E/DX2                !
 ! A32   A(9,15,19)            111.4196         estimate D2E/DX2                !
 ! A33   A(12,16,20)           108.643          estimate D2E/DX2                !
 ! A34   A(12,17,21)           108.643          estimate D2E/DX2                !
 ! A35   L(4,5,7,6,-1)         181.651          estimate D2E/DX2                !
 ! A36   L(1,13,12,7,-1)       192.9148         estimate D2E/DX2                !
 ! A37   L(4,5,7,6,-2)         192.4262         estimate D2E/DX2                !
 ! A38   L(1,13,12,7,-2)       182.639          estimate D2E/DX2                !
 ! D1    D(2,1,4,5)           -147.8115         estimate D2E/DX2                !
 ! D2    D(2,1,4,8)            -95.4252         estimate D2E/DX2                !
 ! D3    D(3,1,4,5)             92.1884         estimate D2E/DX2                !
 ! D4    D(3,1,4,8)            144.5748         estimate D2E/DX2                !
 ! D5    D(13,1,4,5)           -43.2701         estimate D2E/DX2                !
 ! D6    D(13,1,4,8)             9.1162         estimate D2E/DX2                !
 ! D7    D(2,1,12,11)          142.335          estimate D2E/DX2                !
 ! D8    D(2,1,12,16)           20.0843         estimate D2E/DX2                !
 ! D9    D(2,1,12,17)          -93.1114         estimate D2E/DX2                !
 ! D10   D(3,1,12,11)         -101.8414         estimate D2E/DX2                !
 ! D11   D(3,1,12,16)          135.9078         estimate D2E/DX2                !
 ! D12   D(3,1,12,17)           22.7121         estimate D2E/DX2                !
 ! D13   D(4,1,12,11)           30.4876         estimate D2E/DX2                !
 ! D14   D(4,1,12,16)          -91.7631         estimate D2E/DX2                !
 ! D15   D(4,1,12,17)          155.0412         estimate D2E/DX2                !
 ! D16   D(1,4,5,6)            -73.9818         estimate D2E/DX2                !
 ! D17   D(1,4,5,10)            41.1952         estimate D2E/DX2                !
 ! D18   D(4,5,10,9)          -158.7366         estimate D2E/DX2                !
 ! D19   D(6,5,10,9)           -83.1109         estimate D2E/DX2                !
 ! D20   D(7,5,10,9)            28.0712         estimate D2E/DX2                !
 ! D21   D(8,5,10,9)           139.8088         estimate D2E/DX2                !
 ! D22   D(11,9,10,5)          157.2884         estimate D2E/DX2                !
 ! D23   D(14,9,10,5)          -81.7122         estimate D2E/DX2                !
 ! D24   D(15,9,10,5)           36.2806         estimate D2E/DX2                !
 ! D25   D(10,9,11,12)         -27.1476         estimate D2E/DX2                !
 ! D26   D(14,9,11,12)        -148.6028         estimate D2E/DX2                !
 ! D27   D(15,9,11,12)          96.4465         estimate D2E/DX2                !
 ! D28   D(10,9,14,18)         179.6743         estimate D2E/DX2                !
 ! D29   D(11,9,14,18)         -57.2679         estimate D2E/DX2                !
 ! D30   D(15,9,14,18)          58.3014         estimate D2E/DX2                !
 ! D31   D(10,9,15,19)        -178.1127         estimate D2E/DX2                !
 ! D32   D(11,9,15,19)          58.1607         estimate D2E/DX2                !
 ! D33   D(14,9,15,19)         -58.3014         estimate D2E/DX2                !
 ! D34   D(9,11,12,13)           9.2737         estimate D2E/DX2                !
 ! D35   D(9,11,12,16)         130.6592         estimate D2E/DX2                !
 ! D36   D(9,11,12,17)        -111.7123         estimate D2E/DX2                !
 ! D37   D(11,12,16,20)         57.6234         estimate D2E/DX2                !
 ! D38   D(13,12,16,20)        176.1045         estimate D2E/DX2                !
 ! D39   D(17,12,16,20)        -63.5086         estimate D2E/DX2                !
 ! D40   D(11,12,17,21)        -57.0884         estimate D2E/DX2                !
 ! D41   D(13,12,17,21)       -175.6354         estimate D2E/DX2                !
 ! D42   D(16,12,17,21)         63.5086         estimate D2E/DX2                !
 --------------------------------------------------------------------------------
 Trust Radius=3.00D-01 FncErr=1.00D-07 GrdErr=1.00D-06
 Number of steps in this run=    126 maximum allowed number of steps=    126.
 GradGradGradGradGradGradGradGradGradGradGradGradGradGradGradGradGradGrad

 Leave Link  103 at Sun Feb  3 12:27:09 2019, MaxMem=    33554432 cpu:         0.1
 (Enter /sw/chem/g09/l202.exe)
                          Input orientation:                          
 ---------------------------------------------------------------------
 Center     Atomic      Atomic             Coordinates (Angstroms)
 Number     Number       Type             X           Y           Z
 ---------------------------------------------------------------------
      1         22           0        3.146667   -1.480216    0.195644
      2         17           0        3.643556   -3.117133    1.747966
      3         17           0        5.068806   -0.887077   -0.939992
      4         17           0        2.288885    0.371852    1.277381
      5         22           0        0.673978    1.493464   -0.136244
      6         17           0        2.779351    1.942802   -0.973859
      7         17           0       -0.867733    2.892345   -1.137424
      8         17           0        0.662772    1.843730    2.147018
      9         14           0       -1.215946   -0.985817   -1.890946
     10          8           0       -0.307709   -0.061361   -0.918741
     11          8           0       -0.881430   -2.580320   -1.720350
     12         14           0        0.392853   -3.464143   -1.277789
     13          8           0        1.509720   -2.415759   -0.696869
     14          8           0       -2.810697   -0.739062   -1.556604
     15          8           0       -1.005985   -0.603617   -3.480205
     16          8           0       -0.034502   -4.579137   -0.141981
     17          8           0        1.004045   -4.324607   -2.543470
     18          1           0       -3.371743   -1.269517   -2.120324
     19          1           0       -1.567031   -1.134072   -4.043926
     20          1           0       -0.728653   -5.130054   -0.500564
     21          1           0        0.309894   -4.875524   -2.902053
 ---------------------------------------------------------------------
                    Distance matrix (angstroms):
                    1          2          3          4          5
     1  Ti   0.000000
     2  Cl   2.310000   0.000000
     3  Cl   2.310000   3.772215   0.000000
     4  Cl   2.310000   3.772214   3.772214   0.000000
     5  Ti   3.881638   5.798814   5.062361   2.421627   0.000000
     6  Cl   3.635892   5.810174   3.640187   2.788641   2.310000
     7  Cl   6.083729   8.049287   7.040277   4.706209   2.310000
     8  Cl   4.585435   5.801248   6.033247   2.359436   2.310000
     9  Si   4.861140   6.434201   6.357056   4.915832   3.577377
    10  O    3.897142   5.662293   5.439592   3.428254   1.998372
    11  O    4.594216   5.726507   6.235490   5.268075   4.639440
    12  Si   3.700062   4.454512   5.349758   4.983843   5.095098
    13  O    2.086005   3.320000   3.881117   3.503646   4.036681
    14  O    6.253788   7.631041   7.904978   5.938968   4.375449
    15  O    5.614696   7.434364   6.590608   5.868759   4.289767
    16  O    4.453891   4.386054   6.349164   5.650223   6.113793
    17  O    4.492676   5.180872   5.559680   6.189221   6.305049
    18  H    6.920822   8.221422   8.531255   6.803029   5.285688
    19  H    6.349229   8.039201   7.330057   6.741825   5.214982
    20  H    5.368811   5.312622   7.197672   6.522085   6.780199
    21  H    5.401030   5.985643   6.511884   6.994214   6.953148
                    6          7          8          9         10
     6  Cl   0.000000
     7  Cl   3.772215   0.000000
     8  Cl   3.772214   3.772214   0.000000
     9  Si   5.037882   3.966004   5.276464   0.000000
    10  O    3.680984   3.014271   3.737658   1.620091   0.000000
    11  O    5.866617   5.503640   6.075633   1.638122   2.704975
    12  Si   5.918006   6.481799   6.322632   3.017664   3.492653
    13  O    4.548158   5.832867   5.191172   3.301486   2.982527
    14  O    6.227409   4.139800   5.696720   1.648000   2.670411
    15  O    5.205265   4.210640   6.359238   1.648000   2.709747
    16  O    7.151607   7.583418   6.854118   4.167330   4.592200
    17  O    6.700434   7.587155   7.756645   4.062225   4.747180
    18  H    7.033444   4.955528   6.646791   2.186450   3.505959
    19  H    6.146828   5.014859   7.222681   2.186450   3.536012
    20  H    7.909196   8.048840   7.588111   4.398331   5.103304
    21  H    7.503714   8.052361   8.412255   4.298878   5.243198
                   11         12         13         14         15
    11  O    0.000000
    12  Si   1.612700   0.000000
    13  O    2.606183   1.638282   0.000000
    14  O    2.671912   4.215037   4.713434   0.000000
    15  O    2.649520   3.871691   4.166484   2.641131   0.000000
    16  O    2.683990   1.648000   2.715277   4.945158   5.281314
    17  O    2.697236   1.648000   2.703580   5.327504   4.331681
    18  H    2.842507   4.438292   5.212368   0.956000   2.808827
    19  H    2.821469   4.113623   4.723548   2.808827   0.956000
    20  H    2.830611   2.153396   3.523669   4.973021   5.426214
    21  H    2.843174   2.153396   3.514664   5.353377   4.507215
                   16         17         18         19         20
    16  O    0.000000
    17  O    2.628786   0.000000
    18  H    5.099471   5.353518   0.000000
    19  H    5.426075   4.363636   2.641131   0.000000
    20  H    0.956000   2.797222   4.951091   5.406123   0.000000
    21  H    2.797222   0.956000   5.212374   4.338800   2.628786
                   21
    21  H    0.000000
 Symmetry turned off by external request.
 Stoichiometry    Cl6H4O7Si2Ti2
 Framework group  C1[X(Cl6H4O7Si2Ti2)]
 Deg. of freedom    57
 Full point group                 C1      NOp   1
 Rotational constants (GHZ):      0.0000003      0.0000001      0.0000001
 Leave Link  202 at Sun Feb  3 12:27:09 2019, MaxMem=    33554432 cpu:         0.1
 (Enter /sw/chem/g09/l301.exe)
 General basis read from cards:  (5D, 7F)
 Centers:       2      3      4      6      7      8      9     12     10     11
 Centers:      13     14     15     16     17     18     19     20     21
 TZVP
 ****
 Centers:       1      5
 S 8 1.00
     Exponent=  2.1157569025D+05 Coefficients=  2.3318151011D-04
     Exponent=  3.1714945058D+04 Coefficients=  1.8079690851D-03
     Exponent=  7.2175476543D+03 Coefficients=  9.3984311352D-03
     Exponent=  2.0429394247D+03 Coefficients=  3.8156853618D-02
     Exponent=  6.6512896208D+02 Coefficients=  1.2374757197D-01
     Exponent=  2.3874942264D+02 Coefficients=  2.9208551143D-01
     Exponent=  9.2508691001D+01 Coefficients=  4.1226800855D-01
     Exponent=  3.6403919209D+01 Coefficients=  2.1090534061D-01
 S 4 1.00
     Exponent=  2.3272624607D+02 Coefficients= -2.4920140738D-02
     Exponent=  7.1791209711D+01 Coefficients= -1.1746490087D-01
     Exponent=  1.1158534615D+01 Coefficients=  5.6503342318D-01
     Exponent=  4.6548135416D+00 Coefficients=  5.6211101812D-01
 S 2 1.00
     Exponent=  6.8034629174D+00 Coefficients= -2.3011425503D-01
     Exponent=  1.1201076403D+00 Coefficients=  7.2103186735D-01
 S 1 1.00
     Exponent=  4.8080118839D-01 Coefficients=  1.0000000000D+00
 S 1 1.00
     Exponent=  8.5157274977D-02 Coefficients=  1.0000000000D+00
 S 1 1.00
     Exponent=  3.2657477046D-02 Coefficients=  1.0000000000D+00
 P 6 1.00
     Exponent=  1.0631474732D+03 Coefficients=  2.4690839320D-03
     Exponent=  2.5156507061D+02 Coefficients=  1.9773345523D-02
     Exponent=  8.0408554854D+01 Coefficients=  9.0987976672D-02
     Exponent=  2.9768193269D+01 Coefficients=  2.5559900413D-01
     Exponent=  1.1736830556D+01 Coefficients=  4.0489386764D-01
     Exponent=  4.7142375230D+00 Coefficients=  2.3693402558D-01
 P 3 1.00
     Exponent=  1.7796803704D+01 Coefficients= -2.7878639615D-02
     Exponent=  2.4272698680D+00 Coefficients=  5.5672914668D-01
     Exponent=  9.6823445537D-01 Coefficients=  1.0055447350D+00
 P 1 1.00
     Exponent=  3.7056694165D-01 Coefficients=  1.0000000000D+00
 P 1 1.00
     Exponent=  1.0156100000D-01 Coefficients=  1.0000000000D+00
 D 4 1.00
     Exponent=  3.7713384723D+01 Coefficients=  1.1513835092D-02
     Exponent=  1.0692931184D+01 Coefficients=  6.7246343996D-02
     Exponent=  3.6728446990D+00 Coefficients=  2.1484207775D-01
     Exponent=  1.3588590303D+00 Coefficients=  3.8890892779D-01
 D 1 1.00
     Exponent=  4.9213295253D-01 Coefficients=  1.0000000000D+00
 D 1 1.00
     Exponent=  1.6330520653D-01 Coefficients=  1.0000000000D+00
 D 1 1.00
     Exponent=  5.4000000000D-02 Coefficients=  1.0000000000D+00
 F 1 1.00
     Exponent=  5.6200000000D-01 Coefficients=  1.0000000000D+00
 ****
 Ernie: Thresh=  0.10000D-02 Tol=  0.10000D-05 Strict=F.
   423 basis functions,   857 primitive gaussians,   452 cartesian basis functions
   117 alpha electrons      117 beta electrons
       nuclear repulsion energy      3508.3852610686 Hartrees.
 IExCor= 4639 DFT=T Ex+Corr=wB97XD ExCW=0 ScaHFX=  1.000000
 ScaDFX=  1.000000  1.000000  1.000000  1.000000 ScalE2=  1.000000  1.000000
 IRadAn=      0 IRanWt=     -1 IRanGd=            0 ICorTp=0 IEmpDi=121
  HFx wShort=  0.000000 wLong=  0.200000 cFull=  0.222036 cShort=  0.000000 cLong=  0.777964
  DFx wShort=  0.000000 wLong=  0.200000 cFull=  0.000000 cShort=  0.000000 cLong=  1.000000
 NAtoms=   21 NActive=   21 NUniq=   21 SFac= 1.00D+00 NAtFMM=   60 NAOKFM=F Big=F
 Integral buffers will be    131072 words long.
 Raffenetti 2 integral format.
 Two-electron integral symmetry is turned off.
 R6Disp:  Grimme-D2 Dispersion energy=       -0.0172980831 Hartrees.
 Nuclear repulsion after empirical dispersion term =     3508.3679629855 Hartrees.
 Leave Link  301 at Sun Feb  3 12:27:09 2019, MaxMem=    33554432 cpu:         0.8
 (Enter /sw/chem/g09/l302.exe)
 NPDir=0 NMtPBC=     1 NCelOv=     1 NCel=       1 NClECP=     1 NCelD=      1
         NCelK=      1 NCelE2=     1 NClLst=     1 CellRange=     0.0.
 One-electron integrals computed using PRISM.
 PrsmSu:  requested number of processors reduced to:   4 ShMem   1 Linda.
 NBasis=   423 RedAO= T EigKep=  1.49D-03  NBF=   423
 NBsUse=   423 1.00D-06 EigRej= -1.00D+00 NBFU=   423
 Precomputing XC quadrature grid using
 IXCGrd= 4 IRadAn=           0 IRanWt=          -1 IRanGd=           0 AccXCQ= 0.00D+00.
 Generated NRdTot=       0 NPtTot=           0 NUsed=           0 NTot=          32
 NSgBfM=   428   428   428   428   428 MxSgAt=    21 MxSgA2=    21.
 Leave Link  302 at Sun Feb  3 12:27:10 2019, MaxMem=    33554432 cpu:         6.1
 (Enter /sw/chem/g09/l303.exe)
 DipDrv:  MaxL=1.
 Leave Link  303 at Sun Feb  3 12:27:10 2019, MaxMem=    33554432 cpu:         0.8
 (Enter /sw/chem/g09/l401.exe)
 ExpMin= 3.27D-02 ExpMax= 2.12D+05 ExpMxC= 2.37D+03 IAcc=3 IRadAn=         5 AccDes= 0.00D+00
 Harris functional with IExCor= 4639 and IRadAn=       5 diagonalized for initial guess.
 HarFok:  IExCor= 4639 AccDes= 0.00D+00 IRadAn=         5 IDoV= 1 UseB2=F ITyADJ=14
 ICtDFT=  3500011 ScaDFX=  1.000000  1.000000  1.000000  1.000000
 FoFCou: FMM=F IPFlag=           0 FMFlag=      100000 FMFlg1=           0
         NFxFlg=           0 DoJE=T BraDBF=F KetDBF=T FulRan=T
         wScrn=  0.000000 ICntrl=     500 IOpCl=  0 I1Cent=   200000004 NGrid=           0
         NMat0=    1 NMatS0=      1 NMatT0=    0 NMatD0=    1 NMtDS0=    0 NMtDT0=    0
 Symmetry not used in FoFCou.
 Harris En= -5472.11461058508    
 JPrj=0 DoOrth=F DoCkMO=F.
 Leave Link  401 at Sun Feb  3 12:27:12 2019, MaxMem=    33554432 cpu:        26.5
 (Enter /sw/chem/g09/l502.exe)
 Closed shell SCF:
 Using DIIS extrapolation, IDIIS=  1040.
 Two-electron integral symmetry not used.
 IVT=      639640 IEndB=      639640 NGot=    33554432 MDV=    33136189
 LenX=    33136189 LenY=    32931433
 Requested convergence on RMS density matrix=1.00D-08 within 128 cycles.
 Requested convergence on MAX density matrix=1.00D-06.
 Requested convergence on             energy=1.00D-06.
 No special actions if energy rises.
 Fock matrices will be formed incrementally for  20 cycles.

 Cycle   1  Pass 1  IDiag  1:
 FoFJK:  IHMeth= 1 ICntrl=       0 DoSepK=T KAlg= 0 I1Cent=   0 FoldK=F
 IRaf=         1 NMat=   1 IRICut=       1 DoRegI=T DoRafI=F ISym2E= 0.
 FoFCou: FMM=F IPFlag=           0 FMFlag=      100000 FMFlg1=           0
         NFxFlg=           0 DoJE=T BraDBF=F KetDBF=F FulRan=T
         wScrn=  0.000000 ICntrl=     500 IOpCl=  0 I1Cent=           0 NGrid=           0
         NMat0=    1 NMatS0=      1 NMatT0=    0 NMatD0=    1 NMtDS0=    0 NMtDT0=    0
 Symmetry not used in FoFCou.
 E= -5567.35714865222    
 DIIS: error= 6.54D-02 at cycle   1 NSaved=   1.
 NSaved= 1 IEnMin= 1 EnMin= -5567.35714865222     IErMin= 1 ErrMin= 6.54D-02
 ErrMax= 6.54D-02  0.00D+00 EMaxC= 1.00D-01 BMatC= 4.85D+00 BMatP= 4.85D+00
 IDIUse=3 WtCom= 3.46D-01 WtEn= 6.54D-01
 Coeff-Com:  0.100D+01
 Coeff-En:   0.100D+01
 Coeff:      0.100D+01
 Gap=     0.452 Goal=   None    Shift=    0.000
 GapD=    0.452 DampG=2.000 DampE=0.250 DampFc=0.5000 IDamp=-1.
 Damping current iteration by 5.00D-01
 RMSDP=7.53D-03 MaxDP=5.30D-01              OVMax= 7.03D-01

 Cycle   2  Pass 1  IDiag  1:
 RMSU=  3.76D-03    CP:  9.95D-01
 E= -5554.80670527930     Delta-E=       12.550443372915 Rises=F Damp=T
 DIIS: error= 7.00D-02 at cycle   2 NSaved=   2.
 NSaved= 2 IEnMin= 1 EnMin= -5567.35714865222     IErMin= 1 ErrMin= 6.54D-02
 ErrMax= 7.00D-02  0.00D+00 EMaxC= 1.00D-01 BMatC= 8.37D+00 BMatP= 4.85D+00
 IDIUse=2 WtCom= 0.00D+00 WtEn= 1.00D+00
 Coeff-En:   0.911D+00 0.895D-01
 Coeff:      0.911D+00 0.895D-01
 Gap=    -0.139 Goal=   None    Shift=    0.000
 RMSDP=3.44D-03 MaxDP=1.43D-01 DE= 1.26D+01 OVMax= 9.05D-01

 Cycle   3  Pass 1  IDiag  1:
 RMSU=  3.38D-03    CP:  1.01D+00  8.41D-01
 E= -5565.75706831836     Delta-E=      -10.950363039054 Rises=F Damp=F
 DIIS: error= 7.36D-02 at cycle   3 NSaved=   3.
 NSaved= 3 IEnMin= 1 EnMin= -5567.35714865222     IErMin= 1 ErrMin= 6.54D-02
 ErrMax= 7.36D-02  0.00D+00 EMaxC= 1.00D-01 BMatC= 5.89D+00 BMatP= 4.85D+00
 IDIUse=2 WtCom= 0.00D+00 WtEn= 1.00D+00
 Coeff-En:   0.656D+00 0.000D+00 0.344D+00
 Coeff:      0.656D+00 0.000D+00 0.344D+00
 Gap=     0.279 Goal=   None    Shift=    0.000
 RMSDP=2.57D-03 MaxDP=1.35D-01 DE=-1.10D+01 OVMax= 3.19D-01

 Cycle   4  Pass 1  IDiag  1:
 RMSU=  1.81D-03    CP:  1.01D+00  4.84D-01  6.36D-01
 E= -5568.59840339758     Delta-E=       -2.841335079229 Rises=F Damp=F
 DIIS: error= 1.55D-02 at cycle   4 NSaved=   4.
 NSaved= 4 IEnMin= 4 EnMin= -5568.59840339758     IErMin= 4 ErrMin= 1.55D-02
 ErrMax= 1.55D-02  0.00D+00 EMaxC= 1.00D-01 BMatC= 3.73D-01 BMatP= 4.85D+00
 IDIUse=3 WtCom= 8.45D-01 WtEn= 1.55D-01
 Coeff-Com:  0.123D+00 0.259D-01 0.149D+00 0.703D+00
 Coeff-En:   0.000D+00 0.000D+00 0.135D+00 0.865D+00
 Coeff:      0.104D+00 0.219D-01 0.146D+00 0.728D+00
 Gap=     0.249 Goal=   None    Shift=    0.000
 RMSDP=1.57D-03 MaxDP=1.13D-01 DE=-2.84D+00 OVMax= 1.61D-01

 Cycle   5  Pass 1  IDiag  1:
 RMSU=  8.31D-04    CP:  1.01D+00  4.90D-01  6.73D-01  2.73D-01
 E= -5568.78074842102     Delta-E=       -0.182345023437 Rises=F Damp=F
 DIIS: error= 1.13D-02 at cycle   5 NSaved=   5.
 NSaved= 5 IEnMin= 5 EnMin= -5568.78074842102     IErMin= 5 ErrMin= 1.13D-02
 ErrMax= 1.13D-02  0.00D+00 EMaxC= 1.00D-01 BMatC= 1.51D-01 BMatP= 3.73D-01
 IDIUse=3 WtCom= 8.87D-01 WtEn= 1.13D-01
 Coeff-Com:  0.167D-01 0.234D-01-0.187D-01 0.386D+00 0.593D+00
 Coeff-En:   0.000D+00 0.000D+00 0.000D+00 0.328D+00 0.672D+00
 Coeff:      0.148D-01 0.207D-01-0.166D-01 0.379D+00 0.602D+00
 Gap=     0.279 Goal=   None    Shift=    0.000
 RMSDP=7.75D-04 MaxDP=6.82D-02 DE=-1.82D-01 OVMax= 1.13D-01

 Cycle   6  Pass 1  IDiag  1:
 RMSU=  3.94D-04    CP:  1.01D+00  4.78D-01  6.36D-01  5.84D-01  6.02D-01
 E= -5568.87266981925     Delta-E=       -0.091921398231 Rises=F Damp=F
 DIIS: error= 5.14D-03 at cycle   6 NSaved=   6.
 NSaved= 6 IEnMin= 6 EnMin= -5568.87266981925     IErMin= 6 ErrMin= 5.14D-03
 ErrMax= 5.14D-03  0.00D+00 EMaxC= 1.00D-01 BMatC= 3.64D-02 BMatP= 1.51D-01
 IDIUse=3 WtCom= 9.49D-01 WtEn= 5.14D-02
 Coeff-Com: -0.881D-03 0.144D-01-0.227D-01 0.204D+00 0.439D+00 0.366D+00
 Coeff-En:   0.000D+00 0.000D+00 0.000D+00 0.000D+00 0.228D+00 0.772D+00
 Coeff:     -0.835D-03 0.136D-01-0.215D-01 0.194D+00 0.428D+00 0.387D+00
 Gap=     0.277 Goal=   None    Shift=    0.000
 RMSDP=3.08D-04 MaxDP=2.17D-02 DE=-9.19D-02 OVMax= 3.82D-02

 Cycle   7  Pass 1  IDiag  1:
 RMSU=  1.47D-04    CP:  1.01D+00  4.82D-01  6.49D-01  5.72D-01  7.36D-01
                    CP:  3.87D-01
 E= -5568.90084019016     Delta-E=       -0.028170370910 Rises=F Damp=F
 DIIS: error= 2.03D-03 at cycle   7 NSaved=   7.
 NSaved= 7 IEnMin= 7 EnMin= -5568.90084019016     IErMin= 7 ErrMin= 2.03D-03
 ErrMax= 2.03D-03  0.00D+00 EMaxC= 1.00D-01 BMatC= 4.14D-03 BMatP= 3.64D-02
 IDIUse=3 WtCom= 9.80D-01 WtEn= 2.03D-02
 Coeff-Com: -0.416D-02 0.708D-02-0.493D-02 0.520D-01 0.173D+00 0.235D+00
 Coeff-Com:  0.542D+00
 Coeff-En:   0.000D+00 0.000D+00 0.000D+00 0.000D+00 0.000D+00 0.231D-02
 Coeff-En:   0.998D+00
 Coeff:     -0.407D-02 0.693D-02-0.483D-02 0.509D-01 0.169D+00 0.230D+00
 Coeff:      0.552D+00
 Gap=     0.244 Goal=   None    Shift=    0.000
 RMSDP=1.09D-04 MaxDP=1.02D-02 DE=-2.82D-02 OVMax= 1.51D-02

 Cycle   8  Pass 1  IDiag  1:
 RMSU=  6.52D-05    CP:  1.01D+00  4.88D-01  6.56D-01  5.51D-01  7.69D-01
                    CP:  5.07D-01  6.64D-01
 E= -5568.90402009869     Delta-E=       -0.003179908532 Rises=F Damp=F
 DIIS: error= 9.01D-04 at cycle   8 NSaved=   8.
 NSaved= 8 IEnMin= 8 EnMin= -5568.90402009869     IErMin= 8 ErrMin= 9.01D-04
 ErrMax= 9.01D-04  0.00D+00 EMaxC= 1.00D-01 BMatC= 7.18D-04 BMatP= 4.14D-03
 IDIUse=3 WtCom= 9.91D-01 WtEn= 9.01D-03
 Coeff-Com: -0.339D-02 0.124D-02 0.454D-02-0.311D-01-0.895D-02 0.439D-01
 Coeff-Com:  0.368D+00 0.626D+00
 Coeff-En:   0.000D+00 0.000D+00 0.000D+00 0.000D+00 0.000D+00 0.000D+00
 Coeff-En:   0.000D+00 0.100D+01
 Coeff:     -0.336D-02 0.123D-02 0.450D-02-0.308D-01-0.887D-02 0.435D-01
 Coeff:      0.365D+00 0.629D+00
 Gap=     0.245 Goal=   None    Shift=    0.000
 RMSDP=4.46D-05 MaxDP=2.63D-03 DE=-3.18D-03 OVMax= 4.80D-03

 Cycle   9  Pass 1  IDiag  1:
 RMSU=  2.52D-05    CP:  1.01D+00  4.91D-01  6.58D-01  5.49D-01  7.85D-01
                    CP:  5.16D-01  8.72D-01  9.81D-01
 E= -5568.90466522081     Delta-E=       -0.000645122120 Rises=F Damp=F
 DIIS: error= 1.28D-04 at cycle   9 NSaved=   9.
 NSaved= 9 IEnMin= 9 EnMin= -5568.90466522081     IErMin= 9 ErrMin= 1.28D-04
 ErrMax= 1.28D-04  0.00D+00 EMaxC= 1.00D-01 BMatC= 2.28D-05 BMatP= 7.18D-04
 IDIUse=3 WtCom= 9.99D-01 WtEn= 1.28D-03
 Coeff-Com: -0.364D-03-0.269D-03 0.123D-02-0.109D-01-0.122D-01-0.116D-01
 Coeff-Com:  0.264D-01 0.170D+00 0.837D+00
 Coeff-En:   0.000D+00 0.000D+00 0.000D+00 0.000D+00 0.000D+00 0.000D+00
 Coeff-En:   0.000D+00 0.000D+00 0.100D+01
 Coeff:     -0.363D-03-0.269D-03 0.122D-02-0.109D-01-0.122D-01-0.116D-01
 Coeff:      0.264D-01 0.170D+00 0.838D+00
 Gap=     0.246 Goal=   None    Shift=    0.000
 RMSDP=1.59D-05 MaxDP=6.61D-04 DE=-6.45D-04 OVMax= 1.89D-03

 Cycle  10  Pass 1  IDiag  1:
 RMSU=  1.13D-05    CP:  1.01D+00  4.91D-01  6.59D-01  5.49D-01  7.92D-01
                    CP:  5.27D-01  9.12D-01  1.07D+00  1.07D+00
 E= -5568.90470724293     Delta-E=       -0.000042022117 Rises=F Damp=F
 DIIS: error= 5.60D-05 at cycle  10 NSaved=  10.
 NSaved=10 IEnMin=10 EnMin= -5568.90470724293     IErMin=10 ErrMin= 5.60D-05
 ErrMax= 5.60D-05  0.00D+00 EMaxC= 1.00D-01 BMatC= 4.63D-06 BMatP= 2.28D-05
 IDIUse=1 WtCom= 1.00D+00 WtEn= 0.00D+00
 Coeff-Com:  0.182D-03-0.107D-03-0.593D-03 0.574D-03 0.267D-03-0.678D-02
 Coeff-Com: -0.283D-01-0.288D-02 0.260D+00 0.778D+00
 Coeff:      0.182D-03-0.107D-03-0.593D-03 0.574D-03 0.267D-03-0.678D-02
 Coeff:     -0.283D-01-0.288D-02 0.260D+00 0.778D+00
 Gap=     0.246 Goal=   None    Shift=    0.000
 RMSDP=7.86D-06 MaxDP=4.62D-04 DE=-4.20D-05 OVMax= 1.01D-03

 Cycle  11  Pass 1  IDiag  1:
 RMSU=  5.42D-06    CP:  1.01D+00  4.91D-01  6.58D-01  5.49D-01  7.95D-01
                    CP:  5.27D-01  9.16D-01  1.11D+00  1.20D+00  1.17D+00
 E= -5568.90471940299     Delta-E=       -0.000012160061 Rises=F Damp=F
 DIIS: error= 3.82D-05 at cycle  11 NSaved=  11.
 NSaved=11 IEnMin=11 EnMin= -5568.90471940299     IErMin=11 ErrMin= 3.82D-05
 ErrMax= 3.82D-05  0.00D+00 EMaxC= 1.00D-01 BMatC= 1.17D-06 BMatP= 4.63D-06
 IDIUse=1 WtCom= 1.00D+00 WtEn= 0.00D+00
 Coeff-Com:  0.112D-03-0.813D-06-0.420D-03 0.156D-02 0.123D-02-0.191D-02
 Coeff-Com: -0.178D-01-0.295D-01-0.621D-01 0.271D+00 0.838D+00
 Coeff:      0.112D-03-0.813D-06-0.420D-03 0.156D-02 0.123D-02-0.191D-02
 Coeff:     -0.178D-01-0.295D-01-0.621D-01 0.271D+00 0.838D+00
 Gap=     0.246 Goal=   None    Shift=    0.000
 RMSDP=5.69D-06 MaxDP=2.68D-04 DE=-1.22D-05 OVMax= 9.55D-04

 Cycle  12  Pass 1  IDiag  1:
 RMSU=  2.69D-06    CP:  1.01D+00  4.91D-01  6.58D-01  5.49D-01  7.97D-01
                    CP:  5.27D-01  9.23D-01  1.14D+00  1.28D+00  1.45D+00
                    CP:  1.26D+00
 E= -5568.90472418633     Delta-E=       -0.000004783340 Rises=F Damp=F
 DIIS: error= 2.08D-05 at cycle  12 NSaved=  12.
 NSaved=12 IEnMin=12 EnMin= -5568.90472418633     IErMin=12 ErrMin= 2.08D-05
 ErrMax= 2.08D-05  0.00D+00 EMaxC= 1.00D-01 BMatC= 4.38D-07 BMatP= 1.17D-06
 IDIUse=1 WtCom= 1.00D+00 WtEn= 0.00D+00
 Coeff-Com: -0.838D-05 0.266D-04-0.615D-04 0.487D-03 0.145D-03 0.622D-03
 Coeff-Com: -0.417D-02-0.184D-01-0.976D-01-0.930D-01 0.425D+00 0.787D+00
 Coeff:     -0.838D-05 0.266D-04-0.615D-04 0.487D-03 0.145D-03 0.622D-03
 Coeff:     -0.417D-02-0.184D-01-0.976D-01-0.930D-01 0.425D+00 0.787D+00
 Gap=     0.246 Goal=   None    Shift=    0.000
 RMSDP=3.59D-06 MaxDP=1.08D-04 DE=-4.78D-06 OVMax= 6.36D-04

 Cycle  13  Pass 1  IDiag  1:
 RMSU=  1.33D-06    CP:  1.01D+00  4.92D-01  6.58D-01  5.49D-01  7.98D-01
                    CP:  5.29D-01  9.27D-01  1.16D+00  1.33D+00  1.62D+00
                    CP:  1.55D+00  1.30D+00
 E= -5568.90472577617     Delta-E=       -0.000001589844 Rises=F Damp=F
 DIIS: error= 9.45D-06 at cycle  13 NSaved=  13.
 NSaved=13 IEnMin=13 EnMin= -5568.90472577617     IErMin=13 ErrMin= 9.45D-06
 ErrMax= 9.45D-06  0.00D+00 EMaxC= 1.00D-01 BMatC= 7.57D-08 BMatP= 4.38D-07
 IDIUse=1 WtCom= 1.00D+00 WtEn= 0.00D+00
 Coeff-Com: -0.180D-04 0.172D-04 0.408D-04-0.966D-04-0.394D-03 0.257D-03
 Coeff-Com: -0.371D-03-0.522D-02-0.170D-01-0.743D-01 0.630D-03 0.273D+00
 Coeff-Com:  0.823D+00
 Coeff:     -0.180D-04 0.172D-04 0.408D-04-0.966D-04-0.394D-03 0.257D-03
 Coeff:     -0.371D-03-0.522D-02-0.170D-01-0.743D-01 0.630D-03 0.273D+00
 Coeff:      0.823D+00
 Gap=     0.246 Goal=   None    Shift=    0.000
 RMSDP=1.55D-06 MaxDP=5.37D-05 DE=-1.59D-06 OVMax= 3.32D-04

 Cycle  14  Pass 1  IDiag  1:
 RMSU=  6.37D-07    CP:  1.01D+00  4.92D-01  6.58D-01  5.49D-01  7.99D-01
                    CP:  5.29D-01  9.30D-01  1.17D+00  1.35D+00  1.67D+00
                    CP:  1.71D+00  1.50D+00  1.15D+00
 E= -5568.90472603989     Delta-E=       -0.000000263719 Rises=F Damp=F
 DIIS: error= 3.76D-06 at cycle  14 NSaved=  14.
 NSaved=14 IEnMin=14 EnMin= -5568.90472603989     IErMin=14 ErrMin= 3.76D-06
 ErrMax= 3.76D-06  0.00D+00 EMaxC= 1.00D-01 BMatC= 1.60D-08 BMatP= 7.57D-08
 IDIUse=1 WtCom= 1.00D+00 WtEn= 0.00D+00
 Coeff-Com:  0.144D-06 0.441D-05 0.872D-05-0.390D-04-0.460D-04-0.920D-04
 Coeff-Com: -0.496D-03-0.684D-04 0.135D-01 0.490D-02-0.739D-01-0.989D-01
 Coeff-Com:  0.241D+00 0.914D+00
 Coeff:      0.144D-06 0.441D-05 0.872D-05-0.390D-04-0.460D-04-0.920D-04
 Coeff:     -0.496D-03-0.684D-04 0.135D-01 0.490D-02-0.739D-01-0.989D-01
 Coeff:      0.241D+00 0.914D+00
 Gap=     0.246 Goal=   None    Shift=    0.000
 RMSDP=7.57D-07 MaxDP=2.55D-05 DE=-2.64D-07 OVMax= 1.80D-04

 Cycle  15  Pass 1  IDiag  1:
 RMSU=  2.94D-07    CP:  1.01D+00  4.92D-01  6.58D-01  5.49D-01  7.99D-01
                    CP:  5.29D-01  9.30D-01  1.17D+00  1.36D+00  1.69D+00
                    CP:  1.75D+00  1.63D+00  1.40D+00  1.22D+00
 E= -5568.90472609598     Delta-E=       -0.000000056090 Rises=F Damp=F
 DIIS: error= 1.15D-06 at cycle  15 NSaved=  15.
 NSaved=15 IEnMin=15 EnMin= -5568.90472609598     IErMin=15 ErrMin= 1.15D-06
 ErrMax= 1.15D-06  0.00D+00 EMaxC= 1.00D-01 BMatC= 2.24D-09 BMatP= 1.60D-08
 IDIUse=1 WtCom= 1.00D+00 WtEn= 0.00D+00
 Coeff-Com:  0.169D-05 0.141D-06-0.327D-05 0.282D-04 0.105D-03-0.296D-04
 Coeff-Com: -0.149D-03 0.516D-03 0.430D-02 0.107D-01-0.170D-01-0.635D-01
 Coeff-Com: -0.347D-01 0.289D+00 0.811D+00
 Coeff:      0.169D-05 0.141D-06-0.327D-05 0.282D-04 0.105D-03-0.296D-04
 Coeff:     -0.149D-03 0.516D-03 0.430D-02 0.107D-01-0.170D-01-0.635D-01
 Coeff:     -0.347D-01 0.289D+00 0.811D+00
 Gap=     0.246 Goal=   None    Shift=    0.000
 RMSDP=2.59D-07 MaxDP=8.24D-06 DE=-5.61D-08 OVMax= 7.16D-05

 Cycle  16  Pass 1  IDiag  1:
 RMSU=  1.14D-07    CP:  1.01D+00  4.92D-01  6.58D-01  5.49D-01  7.99D-01
                    CP:  5.29D-01  9.30D-01  1.17D+00  1.36D+00  1.70D+00
                    CP:  1.76D+00  1.65D+00  1.48D+00  1.45D+00  1.20D+00
 E= -5568.90472610478     Delta-E=       -0.000000008800 Rises=F Damp=F
 DIIS: error= 7.47D-07 at cycle  16 NSaved=  16.
 NSaved=16 IEnMin=16 EnMin= -5568.90472610478     IErMin=16 ErrMin= 7.47D-07
 ErrMax= 7.47D-07  0.00D+00 EMaxC= 1.00D-01 BMatC= 4.92D-10 BMatP= 2.24D-09
 IDIUse=1 WtCom= 1.00D+00 WtEn= 0.00D+00
 Coeff-Com:  0.134D-06-0.573D-06-0.157D-05 0.122D-04 0.287D-04 0.345D-04
 Coeff-Com:  0.173D-03 0.450D-03-0.283D-02-0.275D-03 0.153D-01 0.955D-02
 Coeff-Com: -0.674D-01-0.161D+00 0.183D+00 0.102D+01
 Coeff:      0.134D-06-0.573D-06-0.157D-05 0.122D-04 0.287D-04 0.345D-04
 Coeff:      0.173D-03 0.450D-03-0.283D-02-0.275D-03 0.153D-01 0.955D-02
 Coeff:     -0.674D-01-0.161D+00 0.183D+00 0.102D+01
 Gap=     0.246 Goal=   None    Shift=    0.000
 RMSDP=1.81D-07 MaxDP=5.83D-06 DE=-8.80D-09 OVMax= 5.22D-05

 Cycle  17  Pass 1  IDiag  1:
 RMSU=  5.41D-08    CP:  1.01D+00  4.92D-01  6.58D-01  5.49D-01  7.99D-01
                    CP:  5.29D-01  9.30D-01  1.17D+00  1.36D+00  1.70D+00
                    CP:  1.77D+00  1.67D+00  1.51D+00  1.59D+00  1.55D+00
                    CP:  1.42D+00
 E= -5568.90472610799     Delta-E=       -0.000000003207 Rises=F Damp=F
 DIIS: error= 3.47D-07 at cycle  17 NSaved=  17.
 NSaved=17 IEnMin=17 EnMin= -5568.90472610799     IErMin=17 ErrMin= 3.47D-07
 ErrMax= 3.47D-07  0.00D+00 EMaxC= 1.00D-01 BMatC= 1.30D-10 BMatP= 4.92D-10
 IDIUse=1 WtCom= 1.00D+00 WtEn= 0.00D+00
 Coeff-Com: -0.323D-06-0.262D-06 0.384D-06-0.292D-05-0.156D-04 0.314D-04
 Coeff-Com:  0.104D-03 0.116D-03-0.139D-02-0.256D-02 0.743D-02 0.133D-01
 Coeff-Com: -0.122D-01-0.985D-01-0.820D-01 0.301D+00 0.875D+00
 Coeff:     -0.323D-06-0.262D-06 0.384D-06-0.292D-05-0.156D-04 0.314D-04
 Coeff:      0.104D-03 0.116D-03-0.139D-02-0.256D-02 0.743D-02 0.133D-01
 Coeff:     -0.122D-01-0.985D-01-0.820D-01 0.301D+00 0.875D+00
 Gap=     0.246 Goal=   None    Shift=    0.000
 RMSDP=7.14D-08 MaxDP=2.61D-06 DE=-3.21D-09 OVMax= 2.14D-05

 Cycle  18  Pass 1  IDiag  1:
 RMSU=  2.02D-08    CP:  1.01D+00  4.92D-01  6.58D-01  5.49D-01  7.99D-01
                    CP:  5.29D-01  9.30D-01  1.17D+00  1.36D+00  1.70D+00
                    CP:  1.77D+00  1.67D+00  1.53D+00  1.63D+00  1.69D+00
                    CP:  1.71D+00  1.40D+00
 E= -5568.90472610856     Delta-E=       -0.000000000568 Rises=F Damp=F
 DIIS: error= 1.75D-07 at cycle  18 NSaved=  18.
 NSaved=18 IEnMin=18 EnMin= -5568.90472610856     IErMin=18 ErrMin= 1.75D-07
 ErrMax= 1.75D-07  0.00D+00 EMaxC= 1.00D-01 BMatC= 2.81D-11 BMatP= 1.30D-10
 IDIUse=1 WtCom= 1.00D+00 WtEn= 0.00D+00
 Coeff-Com: -0.177D-06-0.158D-06 0.698D-06-0.548D-05-0.159D-04 0.699D-05
 Coeff-Com:  0.106D-04-0.468D-04 0.176D-03-0.113D-02-0.377D-03 0.336D-02
 Coeff-Com:  0.105D-01-0.519D-02-0.790D-01-0.120D+00 0.391D+00 0.801D+00
 Coeff:     -0.177D-06-0.158D-06 0.698D-06-0.548D-05-0.159D-04 0.699D-05
 Coeff:      0.106D-04-0.468D-04 0.176D-03-0.113D-02-0.377D-03 0.336D-02
 Coeff:      0.105D-01-0.519D-02-0.790D-01-0.120D+00 0.391D+00 0.801D+00
 Gap=     0.246 Goal=   None    Shift=    0.000
 RMSDP=3.47D-08 MaxDP=1.40D-06 DE=-5.68D-10 OVMax= 1.05D-05

 Cycle  19  Pass 1  IDiag  1:
 RMSU=  1.06D-08    CP:  1.01D+00  4.92D-01  6.58D-01  5.49D-01  7.99D-01
                    CP:  5.29D-01  9.30D-01  1.17D+00  1.36D+00  1.70D+00
                    CP:  1.77D+00  1.67D+00  1.53D+00  1.65D+00  1.74D+00
                    CP:  1.87D+00  1.70D+00  1.20D+00
 E= -5568.90472610859     Delta-E=       -0.000000000035 Rises=F Damp=F
 DIIS: error= 5.21D-08 at cycle  19 NSaved=  19.
 NSaved=19 IEnMin=19 EnMin= -5568.90472610859     IErMin=19 ErrMin= 5.21D-08
 ErrMax= 5.21D-08  0.00D+00 EMaxC= 1.00D-01 BMatC= 2.87D-12 BMatP= 2.81D-11
 IDIUse=1 WtCom= 1.00D+00 WtEn= 0.00D+00
 Coeff-Com:  0.251D-07-0.401D-07 0.300D-07-0.850D-06 0.613D-06-0.733D-05
 Coeff-Com: -0.127D-04-0.239D-04 0.214D-03 0.211D-03-0.120D-02-0.144D-02
 Coeff-Com:  0.257D-02 0.155D-01 0.500D-02-0.630D-01-0.102D+00 0.802D-01
 Coeff-Com:  0.106D+01
 Coeff:      0.251D-07-0.401D-07 0.300D-07-0.850D-06 0.613D-06-0.733D-05
 Coeff:     -0.127D-04-0.239D-04 0.214D-03 0.211D-03-0.120D-02-0.144D-02
 Coeff:      0.257D-02 0.155D-01 0.500D-02-0.630D-01-0.102D+00 0.802D-01
 Coeff:      0.106D+01
 Gap=     0.246 Goal=   None    Shift=    0.000
 RMSDP=1.58D-08 MaxDP=6.45D-07 DE=-3.46D-11 OVMax= 5.00D-06

 Cycle  20  Pass 1  IDiag  1:
 RMSU=  4.56D-09    CP:  1.01D+00  4.92D-01  6.58D-01  5.49D-01  7.99D-01
                    CP:  5.29D-01  9.30D-01  1.17D+00  1.36D+00  1.70D+00
                    CP:  1.77D+00  1.67D+00  1.53D+00  1.65D+00  1.76D+00
                    CP:  1.92D+00  1.85D+00  1.50D+00  1.45D+00
 E= -5568.90472610870     Delta-E=       -0.000000000104 Rises=F Damp=F
 DIIS: error= 2.27D-08 at cycle  20 NSaved=  20.
 NSaved=20 IEnMin=20 EnMin= -5568.90472610870     IErMin=20 ErrMin= 2.27D-08
 ErrMax= 2.27D-08  0.00D+00 EMaxC= 1.00D-01 BMatC= 5.15D-13 BMatP= 2.87D-12
 IDIUse=1 WtCom= 1.00D+00 WtEn= 0.00D+00
 Coeff-Com:  0.397D-07 0.105D-07-0.921D-07 0.449D-06 0.234D-05-0.387D-05
 Coeff-Com: -0.521D-05 0.515D-05 0.361D-04 0.245D-03-0.273D-03-0.846D-03
 Coeff-Com: -0.101D-02 0.480D-02 0.124D-01 0.486D-02-0.803D-01-0.108D+00
 Coeff-Com:  0.239D+00 0.930D+00
 Coeff:      0.397D-07 0.105D-07-0.921D-07 0.449D-06 0.234D-05-0.387D-05
 Coeff:     -0.521D-05 0.515D-05 0.361D-04 0.245D-03-0.273D-03-0.846D-03
 Coeff:     -0.101D-02 0.480D-02 0.124D-01 0.486D-02-0.803D-01-0.108D+00
 Coeff:      0.239D+00 0.930D+00
 Gap=     0.246 Goal=   None    Shift=    0.000
 RMSDP=5.73D-09 MaxDP=2.22D-07 DE=-1.04D-10 OVMax= 1.74D-06

 SCF Done:  E(RwB97XD) =  -5568.90472611     A.U. after   20 cycles
            NFock= 20  Conv=0.57D-08     -V/T= 2.0024
 KE= 5.555335311148D+03 PE=-2.022904644050D+04 EE= 5.596438440256D+03
 Leave Link  502 at Sun Feb  3 12:30:21 2019, MaxMem=    33554432 cpu:      2261.4
 (Enter /sw/chem/g09/l601.exe)
 Copying SCF densities to generalized density rwf, IOpCl= 0 IROHF=0.

 **********************************************************************

            Population analysis using the SCF density.

 **********************************************************************

 Alpha  occ. eigenvalues -- -179.27453-179.25458-101.79354-101.75903-101.75814
 Alpha  occ. eigenvalues -- -101.74013-101.73828-101.72765 -66.38140 -66.38132
 Alpha  occ. eigenvalues --  -20.24446 -20.22697 -19.27883 -19.27604 -19.26924
 Alpha  occ. eigenvalues --  -19.26416 -19.26248 -19.25711 -19.25706 -16.93915
 Alpha  occ. eigenvalues --  -16.93788 -16.93717 -16.92143 -16.92005 -16.91947
 Alpha  occ. eigenvalues --   -9.66001  -9.62196  -9.62080  -9.60619  -9.60305
 Alpha  occ. eigenvalues --   -9.59098  -7.40500  -7.40115  -7.39889  -7.36625
 Alpha  occ. eigenvalues --   -7.36538  -7.36304  -7.36288  -7.36195  -7.36140
 Alpha  occ. eigenvalues --   -7.35068  -7.34758  -7.34677  -7.34652  -7.34444
 Alpha  occ. eigenvalues --   -7.34296  -7.33519  -7.33234  -7.33164  -5.47796
 Alpha  occ. eigenvalues --   -5.47735  -3.82454  -3.82360  -3.82306  -3.82286
 Alpha  occ. eigenvalues --   -3.82259  -3.82254  -2.65258  -2.63521  -1.75175
 Alpha  occ. eigenvalues --   -1.75022  -1.74710  -1.73389  -1.73295  -1.73218
 Alpha  occ. eigenvalues --   -1.15708  -1.13907  -1.11256  -1.10785  -1.10587
 Alpha  occ. eigenvalues --   -1.07506  -1.06895  -1.01258  -0.93709  -0.93186
 Alpha  occ. eigenvalues --   -0.92662  -0.91657  -0.90532  -0.69610  -0.66048
 Alpha  occ. eigenvalues --   -0.62074  -0.61738  -0.61364  -0.58800  -0.57167
 Alpha  occ. eigenvalues --   -0.55286  -0.54623  -0.52793  -0.52183  -0.50908
 Alpha  occ. eigenvalues --   -0.50308  -0.49820  -0.49461  -0.49111  -0.48426
 Alpha  occ. eigenvalues --   -0.48136  -0.46819  -0.46504  -0.46265  -0.45960
 Alpha  occ. eigenvalues --   -0.45861  -0.45446  -0.45263  -0.44842  -0.44699
 Alpha  occ. eigenvalues --   -0.43761  -0.43536  -0.43040  -0.42875  -0.42551
 Alpha  occ. eigenvalues --   -0.42248  -0.42029  -0.40714  -0.40077  -0.39811
 Alpha  occ. eigenvalues --   -0.39644  -0.37545
 Alpha virt. eigenvalues --   -0.12918  -0.11821  -0.11268  -0.10752  -0.10427
 Alpha virt. eigenvalues --   -0.09587  -0.09342  -0.08384  -0.07669  -0.05376
 Alpha virt. eigenvalues --    0.04102   0.07211   0.07769   0.09394   0.11452
 Alpha virt. eigenvalues --    0.13371   0.13615   0.14330   0.14864   0.16009
 Alpha virt. eigenvalues --    0.16736   0.17475   0.17938   0.18153   0.18295
 Alpha virt. eigenvalues --    0.18775   0.19617   0.20464   0.21032   0.21351
 Alpha virt. eigenvalues --    0.21624   0.22140   0.22636   0.23200   0.23964
 Alpha virt. eigenvalues --    0.24821   0.25763   0.25988   0.26813   0.28166
 Alpha virt. eigenvalues --    0.28833   0.30560   0.31933   0.34901   0.35728
 Alpha virt. eigenvalues --    0.35861   0.36810   0.37884   0.38313   0.38594
 Alpha virt. eigenvalues --    0.38848   0.40296   0.40539   0.41460   0.41988
 Alpha virt. eigenvalues --    0.42547   0.42943   0.43309   0.44449   0.44656
 Alpha virt. eigenvalues --    0.45194   0.45667   0.46202   0.47128   0.47339
 Alpha virt. eigenvalues --    0.48942   0.50085   0.50353   0.50481   0.52397
 Alpha virt. eigenvalues --    0.53130   0.53377   0.54227   0.55484   0.56330
 Alpha virt. eigenvalues --    0.56896   0.57949   0.58123   0.58535   0.59705
 Alpha virt. eigenvalues --    0.61133   0.61820   0.61889   0.62330   0.62964
 Alpha virt. eigenvalues --    0.63547   0.63996   0.64943   0.65182   0.65662
 Alpha virt. eigenvalues --    0.66424   0.66712   0.67487   0.68764   0.68820
 Alpha virt. eigenvalues --    0.70738   0.71041   0.71937   0.72868   0.73657
 Alpha virt. eigenvalues --    0.74087   0.75358   0.76224   0.77020   0.77983
 Alpha virt. eigenvalues --    0.79185   0.79903   0.80441   0.80877   0.81421
 Alpha virt. eigenvalues --    0.82019   0.82677   0.82760   0.83085   0.84067
 Alpha virt. eigenvalues --    0.84404   0.84907   0.85086   0.85508   0.85911
 Alpha virt. eigenvalues --    0.86823   0.87866   0.88815   0.89967   0.90368
 Alpha virt. eigenvalues --    0.90804   0.91968   0.92419   0.93042   0.93661
 Alpha virt. eigenvalues --    0.95013   0.95773   0.96282   0.96905   0.98085
 Alpha virt. eigenvalues --    0.98614   0.99831   1.00936   1.01174   1.01575
 Alpha virt. eigenvalues --    1.02420   1.03622   1.05495   1.06618   1.07340
 Alpha virt. eigenvalues --    1.08544   1.10240   1.10439   1.10974   1.12147
 Alpha virt. eigenvalues --    1.13251   1.13987   1.18354   1.19142   1.21736
 Alpha virt. eigenvalues --    1.26703   1.28779   1.31020   1.31787   1.35482
 Alpha virt. eigenvalues --    1.37607   1.41341   1.44614   1.48211   1.49189
 Alpha virt. eigenvalues --    1.49862   1.50032   1.50701   1.51647   1.53918
 Alpha virt. eigenvalues --    1.54270   1.54377   1.55862   1.57176   1.57796
 Alpha virt. eigenvalues --    1.58590   1.59859   1.60332   1.62842   1.64388
 Alpha virt. eigenvalues --    1.64546   1.66058   1.66878   1.68117   1.69249
 Alpha virt. eigenvalues --    1.70760   1.71103   1.76350   1.85432   1.93103
 Alpha virt. eigenvalues --    1.94453   1.98293   1.99581   2.02711   2.03023
 Alpha virt. eigenvalues --    2.04140   2.04930   2.05486   2.07240   2.09362
 Alpha virt. eigenvalues --    2.10079   2.10919   2.12170   2.14328   2.16761
 Alpha virt. eigenvalues --    2.26471   2.28127   2.31260   2.35440   2.36189
 Alpha virt. eigenvalues --    2.36423   2.38951   2.39485   2.40695   2.43173
 Alpha virt. eigenvalues --    2.43858   2.44988   2.46073   2.48708   2.49176
 Alpha virt. eigenvalues --    2.52922   2.55427   2.55563   2.56021   2.57054
 Alpha virt. eigenvalues --    2.58467   2.58906   2.60113   2.61587   2.63856
 Alpha virt. eigenvalues --    2.66691   2.67266   2.67813   2.72316   2.72914
 Alpha virt. eigenvalues --    2.73745   2.73809   2.74415   2.75119   2.75797
 Alpha virt. eigenvalues --    2.77342   2.78897   2.79295   2.79801   2.80998
 Alpha virt. eigenvalues --    2.81354   2.82004   2.82887   2.84249   2.85706
 Alpha virt. eigenvalues --    2.86255   2.87183   2.88840   2.90886   2.91117
 Alpha virt. eigenvalues --    2.94316   2.96988   2.99719   3.01037   3.01626
 Alpha virt. eigenvalues --    3.02507   3.03083   3.03514   3.03956   3.04290
 Alpha virt. eigenvalues --    3.06263   3.07480   3.07843   3.09893   3.10707
 Alpha virt. eigenvalues --    3.12037   3.13518   3.15040   3.16511   3.20744
 Alpha virt. eigenvalues --    3.21604   3.23320   3.25453   3.26303   3.33350
 Alpha virt. eigenvalues --    3.40635   3.42127   3.43780   3.44826   3.46664
 Alpha virt. eigenvalues --    3.50992   3.51634   4.32665   4.33507   4.36637
 Alpha virt. eigenvalues --    4.37077  10.34500  10.36986  24.59979  24.67874
 Alpha virt. eigenvalues --   24.73299  24.84037  24.88591  25.18297  43.37807
 Alpha virt. eigenvalues --   43.40029  43.44454  43.46217  43.47109  43.51864
 Alpha virt. eigenvalues --   43.63002
          Condensed to atoms (all electrons):
               1          2          3          4          5          6
     1  Ti  20.022272   0.379128   0.367820   0.236663  -0.039809   0.011160
     2  Cl   0.379128  16.761183  -0.007167  -0.006819  -0.000499  -0.000016
     3  Cl   0.367820  -0.007167  16.790703  -0.005756  -0.001282  -0.009905
     4  Cl   0.236663  -0.006819  -0.005756  17.015704   0.124274  -0.123931
     5  Ti  -0.039809  -0.000499  -0.001282   0.124274  20.081609   0.341712
     6  Cl   0.011160  -0.000016  -0.009905  -0.123931   0.341712  16.950840
     7  Cl   0.000475   0.000000   0.000000  -0.002947   0.385919  -0.006350
     8  Cl   0.010500   0.000064  -0.000009  -0.222538   0.282722  -0.004044
     9  Si   0.000712   0.000092   0.000044   0.000083  -0.052887   0.000551
    10  O    0.001653  -0.000004  -0.000002  -0.009764   0.224557  -0.000113
    11  O   -0.000293   0.000001  -0.000002   0.000024  -0.000712  -0.000002
    12  Si  -0.039664  -0.000946   0.000831  -0.000003   0.001597   0.000120
    13  O    0.230891  -0.013644   0.001093  -0.005897  -0.000272   0.000300
    14  O   -0.000008   0.000000   0.000000  -0.000002  -0.000203  -0.000001
    15  O   -0.000033   0.000000   0.000000  -0.000003   0.002168   0.000004
    16  O    0.000094   0.000165  -0.000001  -0.000001  -0.000023   0.000000
    17  O   -0.000474  -0.000018  -0.000004  -0.000001   0.000017   0.000000
    18  H   -0.000011   0.000000   0.000000   0.000000  -0.000186   0.000000
    19  H    0.000008   0.000000   0.000000   0.000000  -0.000402   0.000000
    20  H   -0.000133  -0.000028   0.000000   0.000000   0.000007   0.000000
    21  H   -0.000064  -0.000009   0.000001   0.000000  -0.000005   0.000000
               7          8          9         10         11         12
     1  Ti   0.000475   0.010500   0.000712   0.001653  -0.000293  -0.039664
     2  Cl   0.000000   0.000064   0.000092  -0.000004   0.000001  -0.000946
     3  Cl   0.000000  -0.000009   0.000044  -0.000002  -0.000002   0.000831
     4  Cl  -0.002947  -0.222538   0.000083  -0.009764   0.000024  -0.000003
     5  Ti   0.385919   0.282722  -0.052887   0.224557  -0.000712   0.001597
     6  Cl  -0.006350  -0.004044   0.000551  -0.000113  -0.000002   0.000120
     7  Cl  16.794837  -0.005336  -0.004531  -0.030791   0.000002   0.000089
     8  Cl  -0.005336  17.081710   0.001198   0.002910  -0.000005   0.000093
     9  Si  -0.004531   0.001198  11.921111   0.413747   0.352292  -0.061389
    10  O   -0.030791   0.002910   0.413747   8.032266  -0.029267  -0.001338
    11  O    0.000002  -0.000005   0.352292  -0.029267   7.836547   0.369759
    12  Si   0.000089   0.000093  -0.061389  -0.001338   0.369759  11.913076
    13  O    0.000002   0.000218   0.002326  -0.004998  -0.038685   0.405669
    14  O    0.000303  -0.000003   0.396427  -0.026224  -0.028043  -0.000123
    15  O    0.000214   0.000000   0.377951  -0.023698  -0.032771   0.005270
    16  O    0.000000   0.000000   0.000779  -0.000139  -0.027330   0.384689
    17  O    0.000000   0.000000   0.000088   0.000006  -0.026420   0.385688
    18  H   -0.000053   0.000001  -0.020464   0.001606  -0.000926  -0.000247
    19  H   -0.000023   0.000000  -0.018735   0.001286  -0.000152  -0.000616
    20  H    0.000000   0.000000  -0.000273  -0.000007  -0.000752  -0.018763
    21  H    0.000000   0.000000   0.000056   0.000011  -0.000205  -0.019706
              13         14         15         16         17         18
     1  Ti   0.230891  -0.000008  -0.000033   0.000094  -0.000474  -0.000011
     2  Cl  -0.013644   0.000000   0.000000   0.000165  -0.000018   0.000000
     3  Cl   0.001093   0.000000   0.000000  -0.000001  -0.000004   0.000000
     4  Cl  -0.005897  -0.000002  -0.000003  -0.000001  -0.000001   0.000000
     5  Ti  -0.000272  -0.000203   0.002168  -0.000023   0.000017  -0.000186
     6  Cl   0.000300  -0.000001   0.000004   0.000000   0.000000   0.000000
     7  Cl   0.000002   0.000303   0.000214   0.000000   0.000000  -0.000053
     8  Cl   0.000218  -0.000003   0.000000   0.000000   0.000000   0.000001
     9  Si   0.002326   0.396427   0.377951   0.000779   0.000088  -0.020464
    10  O   -0.004998  -0.026224  -0.023698  -0.000139   0.000006   0.001606
    11  O   -0.038685  -0.028043  -0.032771  -0.027330  -0.026420  -0.000926
    12  Si   0.405669  -0.000123   0.005270   0.384689   0.385688  -0.000247
    13  O    8.059045  -0.000009  -0.000410  -0.024286  -0.025134   0.000008
    14  O   -0.000009   7.821195  -0.036312  -0.000001  -0.000007   0.315906
    15  O   -0.000410  -0.036312   7.841700  -0.000016  -0.000057  -0.000831
    16  O   -0.024286  -0.000001  -0.000016   7.825495  -0.034844  -0.000002
    17  O   -0.025134  -0.000007  -0.000057  -0.034844   7.827616   0.000002
    18  H    0.000008   0.315906  -0.000831  -0.000002   0.000002   0.420203
    19  H   -0.000038  -0.000209   0.318024   0.000002   0.000036  -0.000706
    20  H    0.001511   0.000002   0.000005   0.313477  -0.000408  -0.000007
    21  H    0.001685   0.000004  -0.000090  -0.000266   0.314199   0.000001
              19         20         21
     1  Ti   0.000008  -0.000133  -0.000064
     2  Cl   0.000000  -0.000028  -0.000009
     3  Cl   0.000000   0.000000   0.000001
     4  Cl   0.000000   0.000000   0.000000
     5  Ti  -0.000402   0.000007  -0.000005
     6  Cl   0.000000   0.000000   0.000000
     7  Cl  -0.000023   0.000000   0.000000
     8  Cl   0.000000   0.000000   0.000000
     9  Si  -0.018735  -0.000273   0.000056
    10  O    0.001286  -0.000007   0.000011
    11  O   -0.000152  -0.000752  -0.000205
    12  Si  -0.000616  -0.018763  -0.019706
    13  O   -0.000038   0.001511   0.001685
    14  O   -0.000209   0.000002   0.000004
    15  O    0.318024   0.000005  -0.000090
    16  O    0.000002   0.313477  -0.000266
    17  O    0.000036  -0.000408   0.314199
    18  H   -0.000706  -0.000007   0.000001
    19  H    0.415574   0.000000  -0.000001
    20  H    0.000000   0.423746  -0.000795
    21  H   -0.000001  -0.000795   0.424237
 Mulliken charges:
               1
     1  Ti   0.819110
     2  Cl  -0.111483
     3  Cl  -0.136366
     4  Cl   0.000914
     5  Ti   0.651700
     6  Cl  -0.160325
     7  Cl  -0.131809
     8  Cl  -0.147484
     9  Si   0.690823
    10  O   -0.551696
    11  O   -0.373060
    12  Si   0.675914
    13  O   -0.589376
    14  O   -0.442693
    15  O   -0.451113
    16  O   -0.437794
    17  O   -0.440285
    18  H    0.285705
    19  H    0.285954
    20  H    0.282418
    21  H    0.280945
 Sum of Mulliken charges =   0.00000
 Mulliken charges with hydrogens summed into heavy atoms:
               1
     1  Ti   0.819110
     2  Cl  -0.111483
     3  Cl  -0.136366
     4  Cl   0.000914
     5  Ti   0.651700
     6  Cl  -0.160325
     7  Cl  -0.131809
     8  Cl  -0.147484
     9  Si   0.690823
    10  O   -0.551696
    11  O   -0.373060
    12  Si   0.675914
    13  O   -0.589376
    14  O   -0.156988
    15  O   -0.165160
    16  O   -0.155376
    17  O   -0.159340
 Electronic spatial extent (au):  <R**2>=          11062.6751
 Charge=              0.0000 electrons
 Dipole moment (field-independent basis, Debye):
    X=             -1.3019    Y=             -3.7903    Z=             -1.2199  Tot=              4.1892
 Quadrupole moment (field-independent basis, Debye-Ang):
   XX=           -169.9779   YY=           -168.9837   ZZ=           -170.5386
   XY=             15.5341   XZ=             15.0057   YZ=             15.4460
 Traceless Quadrupole moment (field-independent basis, Debye-Ang):
   XX=             -0.1445   YY=              0.8497   ZZ=             -0.7052
   XY=             15.5341   XZ=             15.0057   YZ=             15.4460
 Octapole moment (field-independent basis, Debye-Ang**2):
  XXX=           -660.7132  YYY=            220.8926  ZZZ=            196.5218  XYY=           -280.7604
  XXY=             82.2228  XXZ=             60.6155  XZZ=           -259.3547  YZZ=             61.4498
  YYZ=             20.7987  XYZ=            -36.6152
 Hexadecapole moment (field-independent basis, Debye-Ang**3):
 XXXX=          -5874.4088 YYYY=          -5001.7155 ZZZZ=          -2285.4297 XXXY=            712.5121
 XXXZ=           -247.4974 YYYX=            959.6378 YYYZ=            -73.6127 ZZZX=           -188.8356
 ZZZY=           -240.6580 XXYY=          -1898.5480 XXZZ=          -1297.7973 YYZZ=          -1213.4600
 XXYZ=            -77.1475 YYXZ=              5.2528 ZZXY=            337.3711
 N-N= 3.508367962986D+03 E-N=-2.022904643472D+04  KE= 5.555335311148D+03
 No NMR shielding tensors so no spin-rotation constants.
 Leave Link  601 at Sun Feb  3 12:30:21 2019, MaxMem=    33554432 cpu:         3.1
 (Enter /sw/chem/g09/l701.exe)
 Compute integral first derivatives.
 ... and contract with generalized density number  0.
 R6Disp: Adding Grimme-D2 dispersion energy 1st derivatives to the gradient.
 PrsmSu:  requested number of processors reduced to:   4 ShMem   1 Linda.
 PrsmSu:  requested number of processors reduced to:   8 ShMem   1 Linda.
 Leave Link  701 at Sun Feb  3 12:30:22 2019, MaxMem=    33554432 cpu:         3.2
 (Enter /sw/chem/g09/l702.exe)
 L702 exits ... SP integral derivatives will be done elsewhere.
 Leave Link  702 at Sun Feb  3 12:30:22 2019, MaxMem=    33554432 cpu:         0.2
 (Enter /sw/chem/g09/l703.exe)
 Compute integral first derivatives, UseDBF=F ICtDFT=           0.
 Integral derivatives from FoFJK, PRISM(SPDF).
 Calling FoFJK, ICntrl=      2127 FMM=F ISym2X=0 I1Cent= 0 IOpClX= 0 NMat=1 NMatS=1 NMatT=0.
 FoFJK:  IHMeth= 1 ICntrl=    2127 DoSepK=T KAlg= 0 I1Cent=   0 FoldK=F
 IRaf=         1 NMat=   1 IRICut=       1 DoRegI=T DoRafI=F ISym2E= 0.
 FoFCou: FMM=F IPFlag=           0 FMFlag=      100000 FMFlg1=         800
         NFxFlg=           0 DoJE=F BraDBF=F KetDBF=F FulRan=T
         wScrn=  0.000000 ICntrl=    2527 IOpCl=  0 I1Cent=           0 NGrid=           0
         NMat0=    1 NMatS0=      1 NMatT0=    0 NMatD0=    1 NMtDS0=    0 NMtDT0=    0
 Symmetry not used in FoFCou.
 CoulSu:  requested number of processors reduced to:   8 ShMem   1 Linda.
 CoulSu:  requested number of processors reduced to:   8 ShMem   1 Linda.
 Leave Link  703 at Sun Feb  3 12:31:09 2019, MaxMem=    33554432 cpu:       385.2
 (Enter /sw/chem/g09/l716.exe)
 Dipole        =-5.12217886D-01-1.49122609D+00-4.79935086D-01
 -------------------------------------------------------------------
 Center     Atomic                   Forces (Hartrees/Bohr)
 Number     Number              X              Y              Z
 -------------------------------------------------------------------
      1       22          -0.038039113   -0.057970333   -0.021484618
      2       17          -0.005743310    0.035175051   -0.026857211
      3       17          -0.035843627   -0.012723434    0.020130987
      4       17           0.066316573   -0.097921719   -0.006662044
      5       22          -0.047850667   -0.021208896   -0.042036103
      6       17          -0.028416315    0.013170633   -0.017760871
      7       17           0.028076634   -0.011015682    0.019174484
      8       17          -0.062959962    0.052574148    0.002586111
      9       14          -0.010466902    0.008731951   -0.005635498
     10        8           0.048360319    0.052615807    0.036630353
     11        8          -0.014433940    0.001582432   -0.002926693
     12       14           0.025081538   -0.003266810    0.012176265
     13        8           0.076933162    0.039647959    0.034251913
     14        8          -0.000297095   -0.002770631    0.006034290
     15        8           0.007386687    0.001780611   -0.001786445
     16        8          -0.003535804    0.004697804    0.002931444
     17        8          -0.001104315    0.005322079   -0.004992084
     18        1          -0.005304809    0.000727508    0.002110770
     19        1           0.002069399    0.001127565   -0.005003036
     20        1          -0.003208642   -0.005677953    0.006397842
     21        1           0.002980190   -0.004598092   -0.007279856
 -------------------------------------------------------------------
 Cartesian Forces:  Max     0.097921719 RMS     0.029203495
 Leave Link  716 at Sun Feb  3 12:31:09 2019, MaxMem=    33554432 cpu:         0.3
 (Enter /sw/chem/g09/l103.exe)

 GradGradGradGradGradGradGradGradGradGradGradGradGradGradGradGradGradGrad
 Berny optimization.
 FormGI is forming the generalized inverse of G from B-inverse, IUseBI=4.
 Internal  Forces:  Max     0.100124955 RMS     0.017603722
 Search for a local minimum.
 Step number   1 out of a maximum of  126
 All quantities printed in internal units (Hartrees-Bohrs-Radians)
 RMS Force = .19452D-01 SwitMx=.10000D-02 MixMth= 1
 Mixed Optimization -- RFO/linear search
 Second derivative matrix not updated -- first step.
 ITU=  0
     Eigenvalues ---    0.00870   0.01762   0.02986   0.04887   0.05573
     Eigenvalues ---    0.05918   0.07007   0.08150   0.09229   0.09647
     Eigenvalues ---    0.09988   0.10563   0.10563   0.10563   0.10563
     Eigenvalues ---    0.10711   0.11387   0.11775   0.12236   0.12674
     Eigenvalues ---    0.13045   0.13556   0.14101   0.14474   0.15224
     Eigenvalues ---    0.15726   0.17273   0.18088   0.18538   0.19694
     Eigenvalues ---    0.22435   0.23755   0.24524   0.26833   0.35866
     Eigenvalues ---    0.39175   0.43312   0.46133   0.468311000.00000
     Eigenvalues --- 1000.000001000.000001000.000001000.000001000.00000
     Eigenvalues --- 1000.000001000.000001000.000001000.000001000.00000
     Eigenvalues --- 1000.000001000.000001000.000001000.000001000.00000
     Eigenvalues --- 1000.000001000.000001000.000001000.000001000.00000
     Eigenvalues --- 1000.000001000.000001000.000001000.000001000.00000
     Eigenvalues --- 1000.000001000.000001000.000001000.000001000.00000
     Eigenvalues --- 1000.000001000.000001000.000001000.000001000.00000
     Eigenvalues --- 1000.000001000.000001000.000001000.000001000.00000
     Eigenvalues --- 1000.000001000.000001000.000001000.000001000.00000
     Eigenvalues --- 1000.000001000.000001000.000001000.000001000.00000
     Eigenvalues --- 1000.000001000.000001000.000001000.000001000.00000
     Eigenvalues --- 1000.000001000.000001000.000001000.000001000.00000
     Eigenvalues --- 1000.000001000.000001000.000001000.000001000.00000
     Eigenvalues --- 1000.000001000.000001000.000001000.000001000.00000
     Eigenvalues --- 1000.000001000.000001000.000001000.000001000.00000
     Eigenvalues --- 1000.000001000.000001000.000001000.000001000.00000
     Eigenvalues --- 1000.000001000.000001000.000001000.000001000.00000
     Eigenvalues --- 1000.00000
 RFO step:  Lambda=-1.40756427D-01 EMin= 8.69987911D-03
 Linear search not attempted -- first point.
 Maximum step size (   0.300) exceeded in Quadratic search.
    -- Step size scaled by   0.429
 Iteration  1 RMS(Cart)=  0.05216615 RMS(Int)=  0.00088167
 Iteration  2 RMS(Cart)=  0.00107174 RMS(Int)=  0.00021187
 New curvilinear step failed, DQL= 6.45D-06 SP=-5.77D-03.
 ITry= 1 IFail=1 DXMaxC= 2.46D-01 DCOld= 1.00D+10 DXMaxT= 3.00D-01 DXLimC= 3.00D+00 Rises=F
 Iteration  1 RMS(Cart)=  0.04694953 RMS(Int)=  0.00071394
 Iteration  2 RMS(Cart)=  0.00086980 RMS(Int)=  0.00017178
 New curvilinear step failed, DQL= 5.00D-06 SP=-5.92D-03.
 ITry= 2 IFail=1 DXMaxC= 2.20D-01 DCOld= 1.00D+10 DXMaxT= 3.00D-01 DXLimC= 3.00D+00 Rises=F
 Iteration  1 RMS(Cart)=  0.04173292 RMS(Int)=  0.00056393
 Iteration  2 RMS(Cart)=  0.00068859 RMS(Int)=  0.00013586
 New curvilinear step failed, DQL= 3.82D-06 SP=-5.60D-03.
 ITry= 3 IFail=1 DXMaxC= 1.95D-01 DCOld= 1.00D+10 DXMaxT= 3.00D-01 DXLimC= 3.00D+00 Rises=F
 Iteration  1 RMS(Cart)=  0.03651630 RMS(Int)=  0.00043162
 Iteration  2 RMS(Cart)=  0.00052825 RMS(Int)=  0.00010411
 New curvilinear step failed, DQL= 2.85D-06 SP=-4.94D-03.
 ITry= 4 IFail=1 DXMaxC= 1.70D-01 DCOld= 1.00D+10 DXMaxT= 3.00D-01 DXLimC= 3.00D+00 Rises=F
 Iteration  1 RMS(Cart)=  0.03129969 RMS(Int)=  0.00031700
 Iteration  2 RMS(Cart)=  0.00038888 RMS(Int)=  0.00007656
 Iteration  3 RMS(Cart)=  0.00000021 RMS(Int)=  0.00007657
 ITry= 5 IFail=0 DXMaxC= 1.46D-01 DCOld= 1.00D+10 DXMaxT= 3.00D-01 DXLimC= 3.00D+00 Rises=F
 Variable       Old X    -DE/DX   Delta X   Delta X   Delta X     New X
                                 (Linear)    (Quad)   (Total)
   X14       -5.31145  -0.00273   0.00000   0.00000   0.00000  -5.31145
   Y14       -1.39662  -0.00025   0.00000   0.00000   0.00000  -1.39662
   Z14       -2.94155   0.00239   0.00000   0.00000   0.00000  -2.94155
   X15       -1.90104   0.00067   0.00000   0.00000   0.00000  -1.90104
   Y15       -1.14067   0.00626   0.00000   0.00000   0.00000  -1.14067
   Z15       -6.57663  -0.00383   0.00000   0.00000   0.00000  -6.57663
   X16       -0.06520   0.00048   0.00000   0.00000   0.00000  -0.06520
   Y16       -8.65332   0.00005   0.00000   0.00000   0.00000  -8.65332
   Z16       -0.26831   0.00288   0.00000   0.00000   0.00000  -0.26831
   X17        1.89737   0.00457   0.00000   0.00000   0.00000   1.89737
   Y17       -8.17232  -0.00426   0.00000   0.00000   0.00000  -8.17232
   Z17       -4.80646  -0.00173   0.00000   0.00000   0.00000  -4.80646
   X18       -6.37167  -0.00421   0.00000   0.00000   0.00000  -6.37167
   Y18       -2.39904  -0.00181   0.00000   0.00000   0.00000  -2.39904
   Z18       -4.00683   0.00437   0.00000   0.00000   0.00000  -4.00683
   X19       -2.96126   0.00366   0.00000   0.00000   0.00000  -2.96126
   Y19       -2.14309   0.00126   0.00000   0.00000   0.00000  -2.14309
   Z19       -7.64191  -0.00441   0.00000   0.00000   0.00000  -7.64191
   X20       -1.37695  -0.00479   0.00000   0.00000   0.00000  -1.37695
   Y20       -9.69440   0.00004   0.00000   0.00000   0.00000  -9.69440
   Z20       -0.94593   0.00689   0.00000   0.00000   0.00000  -0.94593
   X21        0.58562   0.00234   0.00000   0.00000   0.00000   0.58562
   Y21       -9.21341  -0.00129   0.00000   0.00000   0.00000  -9.21341
   Z21       -5.48409  -0.00656   0.00000   0.00000   0.00000  -5.48409
    R1        4.36527  -0.04421   0.00000  -0.07693  -0.04616   4.31911
    R2        4.36527  -0.04299   0.00000  -0.07481  -0.04488   4.32038
    R3        4.36527  -0.01571   0.00000  -0.02817  -0.01690   4.34836
    R4        3.94198  -0.10012   0.00000  -0.16570  -0.09945   3.84252
    R5        4.57621   0.03959   0.00000   0.07238   0.04345   4.61966
    R6        4.45869   0.07526   0.00000   0.11817   0.07105   4.52974
    R7        4.36527  -0.01690   0.00000  -0.02940  -0.01764   4.34763
    R8        4.36527  -0.03369   0.00000  -0.05864  -0.03519   4.33008
    R9        4.36527  -0.01772   0.00000  -0.02863  -0.01735   4.34792
   R10        3.77638  -0.07595   0.00000  -0.11606  -0.06960   3.70678
   R11        3.06153   0.00370   0.00000   0.00183   0.00113   3.06266
   R12        3.09560   0.00513   0.00000   0.00453   0.00275   3.09835
   R13        3.11427  -0.00101   0.00000  -0.00297  -0.00178   3.11249
   R14        3.11427  -0.00182   0.00000  -0.00341  -0.00205   3.11221
   R15        3.04756   0.01689   0.00000   0.01265   0.00759   3.05515
   R16        3.09590  -0.00842   0.00000  -0.00554  -0.00336   3.09254
   R17        3.11427   0.00105   0.00000  -0.00109  -0.00066   3.11361
   R18        3.11427  -0.00208   0.00000  -0.00306  -0.00179   3.11248
   R19        1.80658   0.00057   0.00000   0.00000   0.00000   1.80658
   R20        1.80658   0.00136   0.00000   0.00000   0.00000   1.80658
   R21        1.80658   0.00233   0.00000   0.00000   0.00000   1.80658
   R22        1.80658   0.00171   0.00000   0.00000   0.00000   1.80658
    A1        1.91063  -0.00343   0.00000  -0.00343  -0.00206   1.90857
    A2        1.91063   0.00102   0.00000  -0.00072  -0.00046   1.91017
    A3        1.70975   0.00988   0.00000   0.01665   0.01004   1.71980
    A4        1.91063   0.00148   0.00000   0.00047   0.00030   1.91093
    A5        2.16251   0.00029   0.00000  -0.00349  -0.00217   2.16034
    A6        1.84267  -0.00843   0.00000  -0.00812  -0.00485   1.83783
    A7        1.92369   0.02398   0.00000   0.03024   0.01792   1.94162
    A8        2.76164   0.01029   0.00000   0.00764   0.00447   2.76611
    A9        1.25977   0.04496   0.00000   0.06215   0.03749   1.29726
   A10        1.76788  -0.02688   0.00000  -0.03510  -0.02105   1.74682
   A11        1.91063  -0.03696   0.00000  -0.04408  -0.02652   1.88412
   A12        1.91063   0.02907   0.00000   0.03502   0.02057   1.93120
   A13        2.04551  -0.00224   0.00000   0.00108   0.00079   2.04630
   A14        1.91063  -0.02364   0.00000  -0.03337  -0.01994   1.89069
   A15        1.54439   0.02539   0.00000   0.02393   0.01429   1.55868
   A16        2.09743  -0.00530   0.00000  -0.00197  -0.00116   2.09627
   A17        1.95892   0.00103   0.00000   0.00213   0.00135   1.96027
   A18        1.91273  -0.00173   0.00000  -0.00187  -0.00114   1.91159
   A19        1.95513  -0.00086   0.00000  -0.00101  -0.00064   1.95450
   A20        1.89887  -0.00148   0.00000   0.00071   0.00040   1.89928
   A21        1.87565  -0.00184   0.00000  -0.00262  -0.00158   1.87407
   A22        1.85898   0.00507   0.00000   0.00275   0.00165   1.86063
   A23        2.83824  -0.00640   0.00000  -0.00666  -0.00409   2.83415
   A24        2.37948   0.00454   0.00000   0.00590   0.00355   2.38303
   A25        1.86009   0.00582   0.00000   0.01089   0.00650   1.86659
   A26        1.93373  -0.00389   0.00000  -0.00487  -0.00291   1.93083
   A27        1.94812  -0.00311   0.00000  -0.00567  -0.00339   1.94472
   A28        1.94481  -0.00014   0.00000   0.00043   0.00025   1.94507
   A29        1.93224  -0.00226   0.00000  -0.00296  -0.00176   1.93048
   A30        1.84651   0.00331   0.00000   0.00176   0.00104   1.84755
   A31        1.94464   0.00150   0.00000   0.00160   0.00097   1.94561
   A32        1.94464  -0.00031   0.00000   0.00165   0.00100   1.94564
   A33        1.89618   0.00452   0.00000   0.00528   0.00316   1.89934
[...]
 1486347,0.00919373,0.00559254,0.00332842,-0.02020625,-0.05777056,-0.10
 811046,-0.06054434,0.14439013,0.36340028,-0.00191218,-0.00434720,-0.00
 445169,-0.00007836,0.00031708,0.00003002,0.00014205,0.00034181,0.00006
 656,-0.00147388,0.00208660,0.00150842,-0.01745757,-0.06706676,-0.05324
 951,-0.00984738,0.00101816,0.00423236,0.00717761,-0.00189833,0.0090029
 3,-0.00045891,-0.00631036,-0.00772978,-0.04960149,-0.06739302,-0.08893
 280,0.09220597,0.17149499,0.15269942,0.01340903,0.00932712,0.01063849,
 -0.00148607,0.00179492,-0.00139414,-0.00205395,-0.00178102,0.00195162,
 0.00173230,-0.00282992,-0.00293728,-0.00502094,-0.00351124,-0.00317105
 ,0.00230612,0.00011708,-0.00016616,0.00050440,-0.00006418,0.00030530,0
 .00020498,-0.00003480,0.00114305,-0.06952817,0.06830782,-0.02142663,0.
 01097199,0.00590333,0.00298231,0.23967921,-0.00716055,-0.00960778,-0.0
 0576210,0.00035290,0.00016764,0.00025548,0.00138650,0.00172720,-0.0015
 4598,-0.00155832,0.00284093,0.00218464,0.00807504,0.01732947,0.0093752
 5,-0.00488399,-0.00065663,0.00060290,0.00116299,-0.00204723,0.00102872
 ,0.00068175,-0.00012840,-0.00444716,0.07862510,-0.21244465,0.05183841,
 -0.00795534,-0.04842418,-0.01364848,-0.24329111,0.44328566,0.00645987,
 0.00337752,0.00247700,-0.00067405,0.00072404,-0.00042843,-0.00114596,-
 0.00095481,0.00126545,0.00018777,-0.00070874,-0.00057881,-0.00079549,0
 .00135332,-0.00192306,0.00012679,-0.00007964,0.00023841,0.00055078,-0.
 00056658,0.00066840,0.00001700,-0.00013187,0.00056275,-0.01996458,0.04
 585055,-0.04942394,0.00016385,-0.00687991,0.00672824,0.06731887,-0.104
 20276,0.08307778,-0.04734604,-0.02958436,-0.03700653,0.00496919,-0.006
 77197,0.00508552,0.00652756,0.00588923,-0.00596561,-0.00479619,0.00845
 212,0.00896726,0.01012915,0.01102600,0.00682985,-0.00538569,-0.0003009
 5,0.00049751,-0.00015063,-0.00056891,-0.00000357,-0.00019976,0.0000406
 8,-0.00256572,-0.01085908,0.05502133,-0.00633247,-0.00991310,-0.027288
 95,-0.01022713,-0.14359227,0.10193947,-0.02762924,0.48349097,-0.027631
 68,-0.00418976,-0.01804095,0.00370137,-0.00653189,0.00344662,0.0034342
 1,0.00175886,-0.00281681,-0.00097702,0.00192343,0.00334332,-0.00147582
 ,-0.01126933,-0.00401942,0.00147540,0.00068973,-0.00022809,-0.00124585
 ,0.00182471,-0.00105691,-0.00060632,0.00043473,0.00230039,0.02344494,-
 0.04021110,0.00915346,0.00169043,0.01746751,0.00492541,0.11328768,-0.1
 4918739,0.03021916,0.02174934,0.53166923,-0.02918167,-0.01545183,-0.01
 042729,0.00297671,-0.00269664,0.00125263,0.00442033,0.00339656,-0.0045
 1401,-0.00085973,0.00345526,0.00251658,0.00315209,0.00290069,0.0049272
 9,-0.00145037,0.00001385,-0.00017231,-0.00032453,0.00017845,-0.0004315
 6,0.00012203,0.00025800,-0.00198478,-0.00677114,0.02004678,0.00618169,
 -0.00375920,-0.00967935,-0.00609377,-0.02686500,0.02493025,-0.04381164
 ,-0.00736841,0.00516172,0.47829332,-0.15783596,-0.06458701,-0.08761925
 ,-0.00846600,0.01368161,-0.00882438,-0.01136674,-0.00993182,0.01041832
 ,0.01449737,-0.01077754,-0.01113212,-0.00729535,-0.00849175,-0.0056145
 2,0.00400733,0.00033282,-0.00021145,0.00027010,0.00021318,0.00019013,0
 .00022158,-0.00007624,0.00201793,0.00564927,-0.03316713,0.00210710,0.0
 0486702,0.01590197,0.00625825,-0.03902260,0.01844304,-0.01921506,-0.15
 153745,-0.07249719,-0.05544189,0.36843198,-0.06600816,-0.05842698,-0.0
 4318689,0.00067325,0.01335598,-0.00084352,-0.00718568,-0.00378252,0.00
 387098,0.00029730,-0.00558380,-0.00817895,-0.00350963,0.00001010,-0.00
 152450,0.00151023,-0.00014087,-0.00004703,0.00055399,-0.00051103,0.000
 45718,0.00029713,-0.00020034,0.00024670,-0.00188342,-0.00934299,-0.001
 74062,0.00287143,0.00357322,0.00220261,-0.00013733,0.01247523,0.000056
 10,-0.06841489,-0.07846940,-0.03274253,0.17277588,0.14455538,-0.089951
 61,-0.04380434,-0.08768881,-0.00693042,0.00782024,-0.00426242,-0.00304
 842,-0.00431740,0.01457917,0.00084039,-0.00865533,-0.00811649,-0.00366
 203,-0.00407021,-0.00421170,0.00186148,0.00012131,0.00009387,0.0002413
 6,-0.00002423,0.00025860,0.00007172,-0.00015443,0.00155931,0.00395099,
 -0.01719200,-0.00130038,0.00253046,0.00848385,0.00440502,-0.02138015,0
 .00924558,-0.00067332,-0.04884956,-0.03129471,-0.06003625,0.18029187,0
 .09698248,0.15259029,0.00221688,0.00000984,0.00157479,-0.00041719,0.00
 059760,-0.00037967,-0.00028955,-0.00006910,0.00011000,-0.00003174,-0.0
 0004475,-0.00030638,0.00082274,0.01301239,0.00515548,-0.00144044,-0.00
 053680,0.00012893,0.00184030,-0.00193083,0.00135108,0.00072538,-0.0001
 7652,-0.00241791,-0.26975010,0.02564305,0.06006881,-0.02028935,-0.0179
 7117,-0.00837149,-0.01566663,0.01515558,-0.00150883,0.00574098,-0.0078
 9227,0.00384812,-0.00348580,-0.00012821,-0.00205446,0.52218816,-0.0019
 5817,-0.00210312,-0.00148337,0.00012012,-0.00003259,0.00009228,0.00034
 487,0.00039704,-0.00036035,-0.00034233,0.00067281,0.00051321,0.0035015
 0,0.00461022,0.00313542,-0.00157131,-0.00027192,0.00016316,-0.00030574
 ,-0.00022775,-0.00001754,0.00006480,0.00000404,-0.00132450,0.00520945,
 -0.03667115,-0.00788636,-0.01610765,-0.00532295,-0.00435817,0.02131066
 ,-0.00769367,0.00181267,-0.00737487,0.00440544,-0.00248661,0.00481289,
 0.00147180,0.00254419,0.16006420,0.20266181,0.00032528,-0.00038927,-0.
 00075236,-0.00005167,0.00005518,0.00000832,-0.00014319,-0.00008288,0.0
 0019599,-0.00024746,0.00028410,0.00029457,0.00167570,0.00480582,-0.000
 38701,-0.00098952,-0.00025005,0.00026498,0.00063395,-0.00084448,0.0009
 2226,-0.00019060,-0.00010642,-0.00002536,0.03308184,-0.00754241,-0.052
 53343,-0.01347352,-0.00827900,0.00162429,-0.00305820,0.00135488,0.0080
 5674,0.00056530,0.00019874,-0.00137155,0.00028452,0.00015850,0.0005479
 8,0.13114483,0.18553938,0.24379408,0.00052843,-0.00020797,0.00109782,-
 0.00016953,0.00026777,-0.00018557,0.00001668,0.00011294,-0.00020468,0.
 00007003,-0.00011345,-0.00023331,-0.00093306,0.00481534,0.00189891,-0.
 00006679,-0.00010151,-0.00013841,0.00105446,-0.00087028,0.00067153,0.0
 0035130,-0.00012869,-0.00095616,-0.04479386,-0.00718024,0.01614543,0.0
 0145610,-0.00743469,-0.01393390,0.00829204,0.00520212,-0.00729614,0.00
 044994,-0.00210772,0.00235334,-0.00033316,0.00014913,-0.00081012,-0.01
 109194,-0.00230718,0.02884475,0.23140936,-0.00229612,-0.00229286,-0.00
 179076,0.00015677,-0.00007721,0.00013587,0.00039259,0.00044693,-0.0003
 8334,-0.00036773,0.00072637,0.00057912,0.00238043,0.00379058,0.0038893
 8,-0.00123184,-0.00011333,-0.00001352,-0.00007628,-0.00007469,-0.00041
 011,0.00022351,-0.00006830,-0.00146308,-0.01069334,-0.04312939,0.02857
 495,-0.00407300,-0.00336963,-0.01559151,0.00923949,-0.01101236,0.02263
 420,-0.01006002,0.00558352,-0.00350229,0.00509713,0.00179711,0.0026821
 7,-0.00030616,0.01071058,0.00125769,0.18500393,0.20943000,0.00255495,-
 0.00001635,0.00015934,-0.00036008,0.00045347,-0.00022626,-0.00056645,-
 0.00030864,0.00056424,-0.00030229,0.00028077,0.00013153,0.00366717,0.0
 1297152,0.00241581,-0.00230995,-0.00046281,0.00054252,0.00145534,-0.00
 194305,0.00163309,0.00023134,-0.00035232,-0.00152617,0.04168844,0.0506
 4867,-0.28000636,-0.00802633,-0.01623684,-0.02126853,-0.00786936,0.018
 15687,-0.01172913,0.00988381,-0.00798548,-0.00215770,-0.00346717,-0.00
 007184,-0.00094413,0.01483249,0.00242519,-0.01364655,0.15370387,0.1288
 4394,0.53587039,0.00775393,0.00506600,0.00618981,-0.00077107,0.0009865
 8,-0.00068888,-0.00118016,-0.00100509,0.00097099,0.00090179,-0.0015252
 0,-0.00155993,-0.00159451,-0.00080797,-0.00054005,0.00078771,0.0000050
 7,-0.00007239,0.00013732,-0.00005709,0.00007433,0.00013068,-0.00003013
 ,0.00008985,-0.00079013,-0.00438678,0.00068855,0.00128181,0.00235091,0
 .00102073,0.00508787,0.01239433,-0.00583292,-0.07103515,-0.07270638,0.
 07112414,-0.01817527,-0.01965581,0.00004215,0.00037186,0.00095715,-0.0
 0044860,0.00025463,0.00068419,-0.00110883,0.36652788,0.00857225,0.0016
 9056,0.00603031,-0.00122639,0.00220957,-0.00113636,-0.00103888,-0.0006
 3466,0.00074630,0.00031384,-0.00070313,-0.00092026,0.00033534,0.002870
 09,0.00096899,-0.00034099,-0.00017063,0.00005904,0.00033519,-0.0004935
 2,0.00027876,0.00015837,-0.00013157,-0.00057926,-0.00484802,0.01075954
 ,-0.00067600,-0.00076677,-0.00452848,-0.00144726,0.00650964,-0.0232218
 2,0.01690052,-0.06366742,-0.15390373,0.12418420,-0.01976789,-0.0123017
 4,-0.00023128,0.00201951,-0.00105020,-0.00009515,0.00072835,-0.0021345
 1,0.00247967,0.31220017,0.36655076,0.00017233,0.00075194,-0.00261457,0
 .00009768,-0.00056803,0.00051535,-0.00033818,-0.00026783,0.00048841,-0
 .00028075,0.00007710,0.00050305,-0.00045859,-0.00153181,-0.00145518,0.
 00026144,0.00005291,0.00002791,-0.00006840,0.00013341,-0.00000662,-0.0
 0014338,-0.00000895,0.00071934,0.00356748,-0.00711798,-0.00140757,0.00
 079535,0.00354336,0.00178791,-0.00423468,0.01774072,0.00017472,0.05099
 224,0.09883641,-0.15189135,-0.00249638,-0.00239316,0.00644711,-0.00145
 783,0.00065792,0.00061689,-0.00073880,0.00142302,-0.00045723,0.0682066
 1,-0.02313587,0.25200150,0.00335750,0.00314222,0.00405139,-0.00027686,
 0.00049877,-0.00053977,-0.00042192,-0.00060585,0.00040573,0.00066017,-
 0.00108508,-0.00115010,-0.00160169,-0.00198104,-0.00106338,0.00087798,
 0.00007480,-0.00010107,-0.00000887,0.00014149,-0.00003524,0.00001889,0
 .00001047,0.00040946,0.00111485,-0.00964652,0.00211018,0.00170812,0.00
 459901,0.00154756,-0.00430540,0.01953357,0.00647173,-0.05777287,0.0181
 9152,0.04342043,-0.00424052,-0.01230975,-0.01634600,-0.00106519,0.0012
 2765,-0.00020557,0.00010156,0.00149777,-0.00108617,0.00385985,0.000862
 02,0.01806922,0.34433534,0.00727868,0.00147782,0.00446313,-0.00104564,
 0.00180898,-0.00091930,-0.00090004,-0.00057245,0.00081595,0.00026718,-
 0.00062344,-0.00085994,0.00030062,0.00256981,0.00094603,-0.00030530,-0
 .00015824,0.00004420,0.00029942,-0.00044638,0.00025078,0.00013986,-0.0
 0010366,-0.00053143,-0.00355214,0.01004986,-0.00250120,-0.00082484,-0.
 00413834,-0.00127207,0.01430193,-0.01412296,-0.01028034,0.03938031,-0.
 09963819,-0.10505194,-0.01048204,-0.00886776,-0.01756123,0.00212228,-0
 .00119106,0.00019429,0.00067304,-0.00138249,0.00127689,-0.00447453,0.0
 0933764,0.01040661,0.19203732,0.29634094,0.00847782,0.00407145,0.00328
 505,-0.00086418,0.00099275,-0.00054503,-0.00144475,-0.00112789,0.00160
 211,0.00029219,-0.00095218,-0.00087895,-0.00028721,0.00104744,-0.00064
 311,0.00000719,-0.00010305,0.00011178,0.00026471,-0.00033796,0.0002925
 3,0.00002840,-0.00010651,0.00018076,-0.00124029,0.00389485,-0.00552784
 ,0.00011877,-0.00124315,0.00053370,0.00435050,-0.00798752,0.00545548,0
 .06645062,-0.09273182,-0.19649283,-0.01107330,-0.01377760,-0.01215322,
 0.00052655,-0.00067032,0.00095071,-0.00057906,0.00035395,0.00270202,0.
 01558729,-0.00246711,-0.02793524,0.08069650,0.24510111,0.31906093,-0.0
 0070408,-0.00030031,-0.00054248,0.00010509,-0.00012781,0.00009353,0.00
 009807,0.00006502,-0.00005800,-0.00004241,0.00010752,0.00012819,-0.000
 25206,-0.00003904,-0.00015127,-0.00002794,-0.00000066,0.00002261,0.000
 00569,0.00008952,0.00003327,0.00000354,0.00005505,0.00007846,-0.025033
 04,-0.01479195,-0.01583821,-0.00210092,-0.00068681,0.00045753,0.003337
 85,-0.00142225,0.00186208,-0.00220572,0.00189181,-0.00089960,0.0013535
 8,0.00025609,0.00075453,-0.20706256,-0.16719571,-0.17668383,0.00409713
 ,0.00214665,-0.00140532,0.00011528,-0.00055557,0.00038232,0.00035368,-
 0.00045830,-0.00004464,0.22866466,0.00018904,0.00024403,0.00008969,-0.
 00000263,-0.00002093,0.00000472,-0.00004674,-0.00005385,0.00005408,0.0
 0002839,-0.00006392,-0.00004522,-0.00011071,0.00045148,-0.00032418,0.0
 0009176,-0.00001924,0.00001265,0.00018071,-0.00014448,0.00018031,-0.00
 003044,-0.00002404,0.00014727,0.00570534,0.00151022,-0.00240588,-0.000
 09909,0.00134579,-0.00027561,0.00018224,-0.00273320,-0.00038184,0.0007
 5000,0.00048037,-0.00013472,-0.00040052,-0.00023363,-0.00017099,-0.188
 82986,-0.17008808,-0.17852478,0.00263847,-0.00078489,-0.00015399,-0.00
 034080,-0.00013601,0.00006684,-0.00011516,-0.00017499,0.00002089,0.180
 52209,0.16944266,-0.00022055,-0.00012811,0.00000584,0.00001788,-0.0000
 0667,0.00000217,0.00005702,0.00004985,-0.00006637,0.00000996,0.0000118
 6,-0.00000158,0.00011861,-0.00039549,0.00021530,0.00003314,0.00001670,
 -0.00004182,-0.00013595,0.00010635,-0.00014645,0.00000269,0.00000549,-
 0.00007839,0.00794734,-0.00137100,0.00216404,0.00172789,0.00070689,0.0
 0146075,0.00168172,0.00009167,-0.00063313,-0.00081869,0.00015995,0.000
 38718,0.00037385,0.00011344,0.00009458,-0.20116586,-0.18020768,-0.1926
 3652,-0.00145328,-0.00027002,-0.00251157,0.00031731,-0.00003525,-0.000
 13956,0.00010066,-0.00005087,-0.00029870,0.18961810,0.18145396,0.19303
 030,-0.00023687,-0.00021444,-0.00035766,0.00003810,-0.00004499,0.00004
 551,0.00001330,0.00002248,0.00001484,-0.00005257,0.00009581,0.00010288
 ,0.00028282,-0.00046782,0.00003827,-0.00007894,0.00000590,0.00000062,-
 0.00017246,0.00012713,-0.00014379,-0.00005030,0.00001061,0.00004082,0.
 00173941,-0.00287506,0.00590957,0.00149362,0.00064586,0.00163178,-0.00
 004186,0.00035602,0.00192852,-0.00039193,0.00021456,-0.00146466,0.0004
 6932,0.00023917,0.00043617,-0.00263909,-0.00020835,-0.00117886,-0.1903
 3088,-0.17777368,-0.20139266,-0.00014176,-0.00016570,0.00035018,0.0001
 6555,-0.00030634,0.00069720,-0.00074086,-0.00060400,0.00191683,0.19058
 016,0.00024586,0.00029918,0.00024079,-0.00001571,0.00000137,-0.0000186
 8,-0.00004279,-0.00005507,0.00003598,0.00004802,-0.00009460,-0.0000833
 7,-0.00032850,0.00049272,-0.00004179,0.00013279,-0.00001140,-0.0000230
 6,0.00019232,-0.00014955,0.00017290,0.00001585,-0.00002513,0.00006812,
 -0.00101632,0.00175619,0.00820641,-0.00027084,0.00110895,0.00012325,-0
 .00053055,-0.00321668,-0.00025063,0.00038997,0.00059337,0.00142283,-0.
 00049425,-0.00035319,-0.00038856,-0.00004777,-0.00109887,0.00222463,-0
 .17885651,-0.16920886,-0.18964167,0.00006748,-0.00009039,-0.00025921,-
 0.00032375,0.00007954,-0.00074898,0.00007269,0.00115799,-0.00034655,0.
 18062323,0.16918995,-0.00076758,-0.00025551,-0.00034719,0.00010146,-0.
 00011613,0.00007272,0.00014609,0.00009178,-0.00012089,-0.00000217,0.00
 005299,0.00006384,-0.00024547,-0.00004092,-0.00024677,0.00009042,0.000
 05605,0.00000584,0.00004656,0.00007724,0.00002877,0.00002994,0.0000062
 7,-0.00000586,-0.01672646,-0.01384167,-0.02501601,0.00028748,-0.000268
 31,-0.00213224,0.00321814,-0.00155796,0.00249932,-0.00256005,0.0020554
 9,-0.00050107,0.00130993,0.00021554,0.00059080,-0.00110285,0.00171132,
 0.00451910,-0.17833242,-0.16680597,-0.20858635,0.00022681,-0.00052309,
 0.00019378,0.00045642,-0.00053173,-0.00043399,0.00222505,0.00039917,-0
 .00097822,0.19165845,0.17897058,0.23018935,0.00008997,-0.00037174,-0.0
 0006488,-0.00001913,0.00012721,-0.00000318,0.00000396,0.00004747,-0.00
 000802,-0.00005787,0.00011161,0.00010747,0.00014037,-0.00016984,-0.000
 09944,-0.00005251,0.00000640,0.00000856,-0.00004488,0.00004169,-0.0000
 2452,-0.00003725,0.00000805,0.00007164,0.00120898,-0.00075476,-0.00014
 637,-0.00009583,0.00031737,0.00009629,-0.00245500,0.00251553,-0.001041
 76,-0.00692069,-0.00885759,-0.00628096,0.00056560,-0.00099918,0.000681
 17,-0.00053043,-0.00015409,0.00019247,-0.00025529,0.00022467,-0.000039
 74,-0.29192115,-0.23979787,-0.13384202,0.00227529,0.00286665,-0.002474
 15,0.00007330,0.00018749,-0.00013878,0.00009940,-0.00002590,-0.0000031
 6,0.29748870,-0.00032357,0.00014404,0.00002248,0.00010891,-0.00014700,
 0.00008225,0.00001932,-0.00001852,-0.00001079,0.00007994,-0.00005495,-
 0.00003012,-0.00032428,-0.00082272,-0.00031313,0.00019958,0.00004509,-
 0.00002402,-0.00006232,0.00011850,-0.00005918,-0.00001528,0.00003015,0
 .00015079,0.00047071,-0.00287180,0.00062951,0.00042855,0.00146081,0.00
 050363,0.00136634,0.00377070,-0.00034810,-0.01851769,-0.01417866,-0.00
 382098,-0.00085206,0.00018477,0.00112314,-0.00026952,0.00054138,-0.000
 15405,-0.00004495,0.00041072,-0.00049950,-0.22955326,-0.19197278,-0.10
 074040,0.00227452,-0.00095953,-0.00215075,0.00018419,-0.00012880,0.000
 12265,0.00002452,-0.00002758,0.00015948,0.24499733,0.20313481,-0.00002
 065,0.00019978,-0.00003169,-0.00001442,-0.00006977,-0.00000907,0.00004
 116,0.00001751,-0.00006657,-0.00000866,-0.00003427,-0.00003312,0.00002
 163,0.00025832,0.00024557,-0.00001864,-0.00000974,-0.00000713,0.000017
 18,-0.00002607,0.00000175,0.00003453,-0.00000351,-0.00013125,-0.000498
 38,0.00098237,0.00031071,-0.00010104,-0.00054298,-0.00027744,0.0000720
 0,-0.00094478,-0.00129580,0.01411266,0.01819538,-0.00069181,0.00182843
 ,0.00200600,-0.00008106,0.00023161,-0.00008352,-0.00017407,0.00010313,
 -0.00020363,-0.00008264,-0.15526441,-0.12308591,-0.08189461,-0.0022860
 6,-0.00212826,-0.00061357,-0.00008993,0.00002002,0.00006303,-0.0000630
 7,0.00009762,-0.00002320,0.14100250,0.10502784,0.08710507,0.00002832,-
 0.00015080,0.00003118,-0.00001553,0.00003442,-0.00001005,0.00003638,0.
 00003923,-0.00006187,-0.00005621,0.00006140,0.00005301,0.00015207,0.00
 013455,0.00008797,-0.00007807,-0.00000781,0.00000900,-0.00001106,-0.00
 000320,-0.00000683,-0.00000436,-0.00000148,-0.00003168,0.00039018,0.00
 034688,0.00042933,-0.00016552,-0.00026365,-0.00015780,-0.00235288,0.00
 044762,0.00001679,0.00079879,0.00691659,0.00924996,0.00142570,0.000608
 45,0.00133046,-0.00014628,-0.00008791,-0.00007760,-0.00010715,-0.00016
 895,-0.00008307,-0.00160140,0.00014081,0.00116417,-0.28913546,-0.23731
 812,-0.15949014,-0.00003830,0.00010443,0.00001012,-0.00000414,0.000164
 69,-0.00005658,0.00044447,-0.00019099,0.00090043,0.29044045,-0.0002199
 9,0.00020676,-0.00026901,0.00010234,-0.00016083,0.00008842,-0.00000365
 ,-0.00003907,0.00006601,0.00003680,-0.00005107,-0.00000723,-0.00028421
 ,-0.00074256,-0.00039895,0.00017547,0.00003999,-0.00001219,-0.00004831
 ,0.00009567,-0.00003450,-0.00002718,0.00002010,0.00018557,0.00064533,-
 0.00254510,-0.00068680,0.00040904,0.00134323,0.00059522,0.00053190,0.0
 0290014,0.00185714,-0.01208843,-0.00925144,-0.01038170,0.00026691,0.00
 079066,-0.00113826,-0.00042149,0.00027624,0.00019530,-0.00023790,0.000
 75272,0.00013549,-0.00016886,-0.00194501,0.00233300,-0.21802398,-0.189
 28509,-0.13107762,0.00018780,-0.00002649,-0.00002716,0.00029507,-0.000
 34793,0.00014537,-0.00032050,0.00134136,0.00032762,0.22919385,0.196627
 75,-0.00008578,-0.00036732,0.00011430,0.00000553,0.00014617,-0.0000483
 7,0.00009042,0.00006794,-0.00005122,0.00002576,0.00001713,-0.00003270,
 -0.00007909,-0.00043639,0.00001300,0.00007292,0.00002728,-0.00002519,-
 0.00006561,0.00009528,-0.00007276,-0.00000303,0.00002206,0.00000741,0.
 00065255,-0.00186490,0.00139508,0.00011436,0.00076767,0.00005616,-0.00
 115935,0.00329136,-0.00070702,-0.01405780,-0.01982187,-0.01298078,0.00
 001518,-0.00180288,-0.00169894,-0.00020740,0.00028370,-0.00026906,0.00
 004306,0.00005992,-0.00087632,0.00097745,0.00268502,0.00432597,-0.1349
 2592,-0.12181066,-0.08865258,0.00005761,-0.00003241,0.00010911,-0.0001
 7094,0.00023940,0.00022826,0.00200688,0.00032923,-0.00231309,0.1466932
 0,0.13810428,0.10147873\\0.00000367,0.00000373,-0.00000083,-0.00000058
 ,-0.00000096,-0.00000006,-0.00000139,-0.00000160,0.00000094,-0.0000002
 7,0.00000062,0.00000055,-0.00000206,-0.00000508,0.00000088,-0.00000049
 ,0.00000235,-0.00000024,0.00000238,-0.00000049,-0.00000103,0.00000076,
 -0.00000100,0.00000006,0.00000109,-0.00000406,0.00000256,0.00000136,0.
 00000278,-0.00000338,-0.00000058,0.00000286,0.00000217,-0.00000187,-0.
 00000214,-0.00000017,-0.00000099,-0.00000012,0.00000116,-0.00015583,0.
 00457098,-0.00669869,-0.00541807,-0.00083941,0.00704248,0.00389767,0.0
 0080784,-0.00829718,0.00025790,-0.00686311,0.00618151,0.00446204,-0.00
 078811,-0.00210663,-0.00225659,-0.00161558,0.00447783,0.00153525,0.002
 57472,-0.00494716,-0.00232339,0.00215578,0.00434522\\\@


 YOU CAN LEAD A BOY TO COLLEGE....
 BUT YOU CANNOT MAKE HIM THINK....
           ELBERT HUBBARD
 Job cpu time:       0 days  6 hours 27 minutes 52.7 seconds.
 File lengths (MBytes):  RWF=    508 Int=      0 D2E=      0 Chk=     15 Scr=      1
 Normal termination of Gaussian 09 at Sun Feb  3 15:29:37 2019.
115162.508u 248.776s 3:02:28.08 1054.1%	0+0k 1343123+15168036io 0pf+0w
